/*--------------------------------*- C++ -*----------------------------------*\
  =========                 |
  \\      /  F ield         | OpenFOAM: The Open Source CFD Toolbox
   \\    /   O peration     | Website:  https://openfoam.org
    \\  /    A nd           | Version:  9
     \\/     M anipulation  |
\*---------------------------------------------------------------------------*/
FoamFile
{
    format      ascii;
    class       volScalarField;
    location    "489";
    object      epsilon;
}
// * * * * * * * * * * * * * * * * * * * * * * * * * * * * * * * * * * * * * //

dimensions      [0 2 -3 0 0 0 0];

internalField   nonuniform List<scalar> 
203528
(
1.00141
1.81243
2.60041
3.12444
1.57289
2.02759
2.40643
1.78247
2.05072
2.39474
2.93631
24.0215
26.0388
29.6238
33.3559
37.3185
41.4629
45.8359
50.3661
55.1384
60.0483
65.211
70.4988
76.0468
81.7019
87.6387
93.6726
99.9266
106.35
112.967
119.733
126.674
133.862
141.114
148.575
156.206
164.003
171.963
180.09
188.386
196.81
205.383
214.207
223.02
232.165
241.295
250.627
260.089
269.811
279.487
289.38
299.398
309.527
319.772
330.257
340.639
351.391
362.034
372.884
383.796
394.787
406.08
417.194
428.666
439.93
451.59
463.019
474.7
486.393
498.202
510.03
521.928
533.808
545.983
557.859
569.956
582.033
594.171
606.285
618.632
630.64
642.863
655.01
667.177
679.306
691.455
703.509
715.63
727.678
739.719
751.658
763.606
775.436
787.259
798.974
810.69
822.259
833.81
845.234
856.584
868.016
879.029
890.096
901.069
911.877
922.58
933.33
943.652
954.175
964.271
974.348
984.306
994.086
1003.72
1013.19
1022.67
1031.68
1040.84
1049.53
1058.23
1066.68
1074.99
1083.11
1091.04
1098.77
1106.41
1113.65
1120.81
1127.73
1134.53
1140.95
1147.27
1153.32
1159.18
1164.79
1170.15
1175.27
1180.19
1184.84
1189.27
1193.41
1197.32
1200.94
1204.35
1207.42
1210.26
1212.81
1215.01
1217.08
1218.67
1220.16
1221.28
1221.9
1222.59
1222.94
1222.69
1222.69
1222.22
1221.6
1220.52
1218.49
1216.9
1215.03
1211.91
1208.83
1205.7
1202.25
1198.55
1194.08
1189.85
1185.01
1180.01
1174.13
1168.53
1162.31
1155.92
1148.63
1141.71
1134.11
1126.21
1117.92
1109.32
1100.29
1091
1081.34
1071.47
1060.66
1050.35
1038.79
1027.66
1015.8
1003.74
991.367
978.223
965.422
951.603
938.104
924.04
909.667
895.041
880.045
864.871
849.345
833.651
817.654
801.534
785.158
768.64
751.872
735.049
718.079
700.855
683.741
666.532
649.221
631.942
614.573
597.397
580.159
563.043
545.983
529.075
512.31
495.726
479.276
463.026
447.073
431.313
415.805
400.62
385.693
371.108
356.817
342.893
329.286
315.992
303.179
290.646
278.478
266.709
255.266
244.207
233.393
225.768
218.186
210.859
203.678
196.709
189.911
183.273
176.902
170.718
164.673
158.866
153.222
147.765
142.477
137.389
132.486
127.738
123.161
118.761
114.492
110.426
106.501
102.702
99.0577
95.5701
92.1891
88.9414
85.8597
82.8952
80.0204
77.2952
74.6487
72.1189
69.6806
67.3594
65.1097
62.9718
60.8994
58.9342
57.0259
55.2164
53.4557
51.782
50.1598
48.6236
47.1317
45.6995
44.3308
43.0212
41.7463
40.534
39.3616
38.2401
37.1561
36.1222
35.1169
34.162
33.2305
32.3468
31.4862
30.668
29.8721
29.1121
28.3734
27.6712
26.9863
26.3309
25.6971
25.0894
24.4973
23.9322
23.382
22.8544
22.3411
21.8497
21.3705
20.9126
20.4622
20.0313
19.6073
19.2025
18.8051
18.4242
18.0515
17.6974
17.3493
17.0172
16.6874
16.3742
16.0701
15.7574
15.5618
14.8901
17.8143
18.4194
16.1792
14.0511
3.18685
3.04135
3.01472
2.96347
2.99651
2.95843
2.9974
15.0489
15.8315
15.8876
15.6146
15.2663
15.2148
14.8742
2.909
2.96574
2.65805
2.82017
3.13237
3.303
3.24442
3.20876
3.26789
3.28922
3.29372
3.27557
3.24044
3.19026
3.14558
3.09764
3.05306
3.01417
2.9754
2.93785
2.90081
2.86478
2.82926
2.79499
2.76104
2.72842
2.69597
2.66477
2.63383
2.60414
2.57469
2.54613
2.518
2.48983
2.46508
2.43543
2.40784
2.38365
2.35962
2.33592
2.31238
2.28921
2.26632
2.24415
2.2222
2.20107
2.1801
2.15996
2.13988
2.12069
2.10162
2.08306
2.06489
2.04651
2.03115
2.01127
1.99324
1.978
1.9628
1.94772
1.93281
1.9179
1.90322
1.889
1.87484
1.86124
1.84765
1.83459
1.82151
1.80901
1.79658
1.78435
1.77246
1.76003
1.75051
1.73631
1.72406
1.71404
1.70402
1.69397
1.68403
1.6739
1.66394
1.65423
1.64455
1.63526
1.62593
1.61703
1.60803
1.59942
1.59095
1.58231
1.57421
1.56515
1.55923
1.54834
1.53954
1.53269
1.5258
1.51876
1.51186
1.50462
1.49755
1.49063
1.48373
1.47707
1.47037
1.46396
1.45746
1.4512
1.44516
1.43881
1.43303
1.42626
1.42226
1.41415
1.40737
1.4025
1.39761
1.39256
1.38768
1.38239
1.37724
1.3722
1.36714
1.36228
1.35735
1.35267
1.3479
1.3433
1.33896
1.33419
1.33002
1.32489
1.32211
1.31598
1.31071
1.30718
1.30369
1.29999
1.29647
1.29249
1.28863
1.28485
1.28101
1.27733
1.27355
1.26998
1.26629
1.26272
1.25943
1.25562
1.25244
1.2483
1.24621
1.24127
1.23688
1.23416
1.23143
1.22853
1.22579
1.22261
1.21951
1.21651
1.21341
1.21049
1.20746
1.20461
1.2017
1.19882
1.19628
1.19317
1.19068
1.1873
1.1857
1.18169
1.17801
1.1759
1.17383
1.17157
1.16952
1.16706
1.1647
1.16251
1.16037
1.15862
1.15689
1.15559
1.15438
1.15318
1.15208
1.15011
1.14851
1.14597
1.14481
1.14154
1.13845
1.13694
1.13557
1.13421
1.13317
1.1317
1.13033
1.12894
1.12734
1.12576
1.12398
1.12226
1.12044
1.11856
1.11698
1.11478
1.11312
1.11066
1.1096
1.10663
1.10374
1.10232
1.10084
1.09922
1.09775
1.09585
1.09402
1.09228
1.09045
1.08876
1.08697
1.08534
1.08365
1.08197
1.08063
1.07872
1.07736
1.07531
1.07448
1.07203
1.06961
1.06859
1.06752
1.06631
1.06529
1.06384
1.06248
1.0612
1.05984
1.05858
1.05725
1.05603
1.05478
1.05344
1.05254
1.05086
1.0498
1.04806
1.04738
1.04515
1.04299
1.04196
1.04097
1.03963
1.03864
1.03694
1.03539
1.03372
1.03185
1.0299
1.02798
1.02598
1.02363
1.02111
1.01904
1.01633
1.01406
1.01115
1.00974
1.00633
1.00354
1.00225
1.00101
0.999862
0.999058
0.997998
0.997124
0.996473
0.995789
0.995241
0.99461
0.994092
0.993472
0.992815
0.992407
0.991477
0.990817
0.989686
0.989313
0.987716
0.986082
0.985415
0.98491
0.984036
0.983479
0.98236
0.981369
0.9804
0.97939
0.978392
0.97741
0.976434
0.975563
0.974456
0.973909
0.972664
0.971991
0.970644
0.970254
0.968689
0.967185
0.966586
0.966222
0.965557
0.965167
0.964322
0.963509
0.962813
0.962063
0.961338
0.960777
0.959995
0.959581
0.95878
0.958493
0.957801
0.957357
0.95667
0.956427
0.955408
0.954337
0.954394
0.954362
0.954295
0.954291
0.954171
0.953672
0.953848
0.95414
0.954302
0.954395
0.954606
0.954747
0.955098
0.955413
0.955674
0.955971
0.956392
0.956415
0.955923
0.955239
0.955849
0.957034
0.957823
0.958402
0.958232
0.957743
0.957973
0.958192
0.958195
0.958029
0.957334
0.956894
0.956655
0.955968
0.955604
0.955193
0.954348
0.953853
0.952222
0.951074
0.95003
0.94889
0.946916
0.94512
0.942967
0.940709
0.93819
0.935151
0.931702
0.928014
0.923758
0.919129
0.914022
0.908901
0.902833
0.89638
0.889747
0.88304
0.873839
0.865264
0.856629
0.846939
0.836554
0.825253
0.81288
0.799566
0.785616
0.770594
0.754976
0.738496
0.721398
0.702886
0.684641
0.663847
0.642322
0.621477
0.597023
0.573845
0.546929
0.522943
0.495553
0.470973
0.445301
0.419392
0.390445
0.365681
0.340822
0.318511
0.297431
0.281875
0.267341
0.254677
0.242243
0.23018
0.216708
0.201255
0.184244
0.166829
0.150986
0.138991
0.131973
0.130133
0.131183
0.134458
0.136524
0.135455
0.121667
0.0889946
0.0400253
0.536985
0.970432
1.45108
1.80411
1.25656
1.60821
1.94054
2.02408
2.41436
2.87471
3.78142
10.0255
10.6368
12.0404
13.4846
15.0024
16.5851
18.2428
19.9582
21.7533
23.5997
25.5294
27.5068
29.5696
31.6755
33.8713
36.1056
38.4156
40.784
43.2171
45.7048
48.2553
50.88
53.5368
56.2657
59.0511
61.8938
64.7934
67.7501
70.7632
73.8236
76.9384
80.1243
83.326
86.6218
89.9251
93.298
96.7155
100.201
103.693
107.253
110.851
114.49
118.171
121.912
125.647
129.477
133.288
137.163
141.06
144.99
148.99
152.957
157.017
161.035
165.151
169.215
173.355
177.492
181.664
185.839
190.037
194.236
198.491
202.681
206.935
211.172
215.429
219.68
223.965
228.176
232.443
236.675
240.911
245.131
249.347
253.537
257.738
261.904
266.064
270.188
274.307
278.383
282.451
286.477
290.496
294.462
298.416
302.322
306.205
310.07
313.836
317.605
321.327
324.996
328.63
332.239
335.748
339.274
342.685
346.08
349.423
352.701
355.933
359.106
362.25
365.272
368.309
371.209
374.107
376.912
379.671
382.356
384.984
387.538
390.046
392.439
394.805
397.08
399.306
401.422
403.499
405.483
407.404
409.237
411
412.679
414.293
415.814
417.268
418.625
419.913
421.105
422.229
423.257
424.234
425.111
425.889
426.615
427.2
427.751
428.175
428.47
428.791
428.96
429.01
429.102
429.045
428.948
428.672
428.112
427.746
427.219
426.293
425.448
424.567
423.58
422.496
421.207
419.982
418.547
417.052
415.308
413.647
411.769
409.827
407.634
405.541
403.205
400.786
398.238
395.578
392.781
389.896
386.879
383.768
380.383
377.118
373.461
369.929
366.134
362.271
358.276
354.048
349.896
345.407
341.011
336.391
331.67
326.838
321.877
316.83
311.655
306.398
301.03
295.595
290.059
284.448
278.744
272.993
267.175
261.253
255.352
249.389
243.38
237.358
231.295
225.268
219.208
213.166
207.133
201.132
195.166
189.241
183.353
177.519
171.774
166.078
160.466
154.948
149.515
144.186
138.956
133.84
128.832
123.925
119.181
114.527
110.001
105.606
101.327
97.1785
93.1293
89.9249
86.756
83.6909
80.7002
77.8002
74.9804
72.2405
69.5994
67.0472
64.5604
62.1757
59.8573
57.6345
55.4757
53.4023
51.4071
49.4797
47.6243
45.8444
44.1206
42.4779
40.8956
39.3761
37.9135
36.5155
35.1633
33.8707
32.6354
31.4541
30.3115
29.2286
28.1782
27.1805
26.2163
25.3003
24.4146
23.5726
22.7587
21.9869
21.2395
20.5305
19.8419
19.1912
18.5595
17.9609
17.3816
16.8258
16.2937
15.7872
15.2951
14.8272
14.3743
13.9441
13.527
13.1303
12.7451
12.3794
12.0234
11.6855
11.3573
11.0451
10.742
10.4542
10.174
9.90758
9.64844
9.39904
9.15962
8.93105
8.70841
8.49602
8.28913
8.09216
7.89981
7.71625
7.53744
7.36669
7.19918
7.03891
6.88155
6.73133
6.58397
6.44346
6.30596
6.17479
6.04666
5.92227
5.80214
5.68802
5.57749
5.46086
5.40638
5.19058
5.38476
5.49161
6.86729
6.49362
2.57698
2.20503
2.16563
2.14582
2.12641
2.11145
2.10907
3.71068
4.18801
4.26392
4.17663
4.08019
6.13666
6.85157
2.34393
1.98499
1.83528
1.87543
1.96524
2.03437
2.01556
1.97926
1.99048
1.99414
1.98978
1.97618
1.95373
1.92368
1.897
1.86504
1.83939
1.8165
1.79376
1.77167
1.75003
1.72886
1.7081
1.68816
1.66848
1.64961
1.63094
1.61303
1.59534
1.57838
1.56183
1.54556
1.52992
1.51377
1.50049
1.48151
1.46715
1.45436
1.44151
1.42872
1.41611
1.40356
1.39123
1.37935
1.36763
1.35637
1.34526
1.33461
1.32405
1.31395
1.30416
1.29438
1.28517
1.27535
1.26806
1.25561
1.2471
1.23994
1.23266
1.22528
1.21807
1.21068
1.20346
1.19651
1.18961
1.18299
1.17642
1.17013
1.16386
1.15784
1.15209
1.14614
1.14072
1.13454
1.13065
1.122
1.11673
1.11264
1.10843
1.10402
1.09975
1.09516
1.09073
1.08642
1.08213
1.07802
1.07391
1.07
1.06609
1.06229
1.05879
1.0549
1.0516
1.04739
1.0453
1.03902
1.03544
1.03304
1.03055
1.02777
1.02516
1.02214
1.01926
1.01645
1.01365
1.01095
1.00825
1.00565
1.00306
1.00049
0.998254
0.995538
0.993403
0.990435
0.989181
0.984481
0.981918
0.98047
0.978947
0.977129
0.975494
0.973397
0.971455
0.969528
0.96761
0.965746
0.96387
0.962073
0.960277
0.958468
0.957008
0.955006
0.953572
0.951385
0.950571
0.946838
0.944936
0.94406
0.943133
0.941875
0.940817
0.939263
0.937853
0.93645
0.935034
0.933653
0.932254
0.930901
0.929547
0.928141
0.927097
0.925473
0.924406
0.922643
0.922044
0.91884
0.917281
0.916688
0.916034
0.915063
0.914283
0.91301
0.911876
0.910746
0.909594
0.908475
0.907342
0.906228
0.90515
0.903975
0.903194
0.901807
0.900963
0.89949
0.899011
0.896173
0.894859
0.894455
0.894006
0.89323
0.892673
0.891628
0.890731
0.889854
0.889002
0.88826
0.887559
0.886971
0.886518
0.885979
0.885746
0.884831
0.884254
0.883086
0.882708
0.880134
0.878993
0.878744
0.878537
0.878046
0.877853
0.877171
0.876624
0.876044
0.875415
0.874751
0.874046
0.873311
0.872593
0.871745
0.871268
0.870187
0.869581
0.868444
0.868087
0.865656
0.864599
0.864383
0.864108
0.863513
0.86312
0.862227
0.861486
0.860733
0.859977
0.859231
0.858489
0.857749
0.857054
0.856249
0.855835
0.854835
0.854306
0.853315
0.853009
0.850774
0.849875
0.849771
0.849624
0.849176
0.848918
0.848177
0.847586
0.846982
0.846391
0.845786
0.845204
0.844598
0.844067
0.843371
0.84311
0.842232
0.84178
0.8409
0.840627
0.838486
0.837681
0.83754
0.837398
0.836884
0.836617
0.835776
0.835084
0.834304
0.833494
0.832572
0.831741
0.830803
0.829786
0.828554
0.827756
0.826346
0.825374
0.823874
0.823249
0.820554
0.819347
0.818955
0.818566
0.817967
0.817672
0.816964
0.816469
0.816002
0.815599
0.815202
0.814834
0.814478
0.81416
0.813712
0.813601
0.813019
0.812727
0.812103
0.811932
0.810127
0.80953
0.809542
0.809552
0.809262
0.809158
0.808593
0.808157
0.807674
0.807247
0.80676
0.806357
0.805844
0.805506
0.804944
0.804814
0.804175
0.803905
0.803294
0.803158
0.801439
0.800994
0.80109
0.801227
0.801073
0.801094
0.800758
0.800506
0.800242
0.800042
0.799771
0.799641
0.799348
0.799262
0.799021
0.799068
0.798802
0.798711
0.798541
0.798584
0.797278
0.797173
0.79755
0.798021
0.798238
0.798622
0.798658
0.798651
0.798827
0.79909
0.799211
0.7994
0.799572
0.799747
0.799938
0.800307
0.800327
0.800499
0.800663
0.800697
0.799518
0.799346
0.799783
0.800449
0.800623
0.800777
0.80046
0.800085
0.799802
0.799631
0.799033
0.798561
0.79768
0.79693
0.796165
0.795282
0.794123
0.793018
0.79152
0.790291
0.787286
0.785597
0.783989
0.782263
0.779807
0.777407
0.774425
0.771366
0.767973
0.76422
0.760048
0.755604
0.750672
0.745435
0.739637
0.733709
0.726895
0.719807
0.712131
0.704552
0.694458
0.685361
0.675804
0.665316
0.653971
0.641804
0.628524
0.614455
0.599603
0.583759
0.567064
0.54943
0.530987
0.511301
0.491294
0.469753
0.447143
0.424713
0.400323
0.376478
0.350856
0.326907
0.301597
0.278159
0.255228
0.23326
0.210893
0.191511
0.173452
0.157699
0.143644
0.133002
0.123796
0.116062
0.108993
0.102473
0.0956855
0.0882735
0.080431
0.0726933
0.0659365
0.0610151
0.0584528
0.0578689
0.0581399
0.0589063
0.0590052
0.0575805
0.0511204
0.0373936
0.0181501
0.417423
0.723842
1.08106
1.37222
1.24558
1.58352
1.97247
2.31947
2.73192
3.24385
3.98737
6.86906
7.45919
8.40303
9.37872
10.4
11.4612
12.5696
13.7141
14.9082
16.135
17.4135
18.7231
20.0852
21.4757
22.9211
24.3915
25.9096
27.4645
29.0593
30.6891
32.3589
34.0734
35.8088
37.5909
39.4072
41.2602
43.1481
45.0725
47.0308
49.0198
51.043
53.1084
55.1856
57.3199
59.4584
61.6426
63.8529
66.1032
68.3577
70.6568
72.976
75.3223
77.693
80.0988
82.5026
84.9625
87.4097
89.8983
92.3969
94.919
97.4761
100.018
102.612
105.182
107.807
110.403
113.042
115.68
118.334
120.991
123.658
126.328
129.024
131.683
134.378
137.061
139.753
142.442
145.142
147.802
150.49
153.155
155.82
158.474
161.12
163.751
166.383
168.993
171.594
174.174
176.743
179.288
181.822
184.331
186.828
189.295
191.748
194.172
196.577
198.966
201.294
203.625
205.919
208.183
210.42
212.638
214.795
216.96
219.049
221.133
223.177
225.183
227.156
229.096
231.008
232.853
234.698
236.465
238.226
239.931
241.604
243.234
244.825
246.375
247.889
249.341
250.771
252.149
253.491
254.773
256.028
257.229
258.388
259.5
260.566
261.586
262.563
263.489
264.371
265.201
265.985
266.72
267.409
268.048
268.648
269.193
269.681
270.137
270.514
270.873
271.15
271.374
271.601
271.735
271.823
271.923
271.909
271.895
271.761
271.469
271.302
271.022
270.507
270.074
269.599
269.064
268.464
267.764
267.085
266.282
265.437
264.466
263.528
262.459
261.345
260.103
258.901
257.552
256.154
254.678
253.128
251.499
249.809
248.038
246.195
244.208
242.261
240.096
237.987
235.716
233.398
230.99
228.449
225.931
223.215
220.543
217.721
214.839
211.875
208.831
205.721
202.529
199.275
195.951
192.572
189.128
185.625
182.062
178.459
174.807
171.087
167.37
163.605
159.809
155.994
152.152
148.32
144.464
140.611
136.761
132.923
129.104
125.301
121.522
117.77
114.07
110.395
106.773
103.204
99.6877
96.2321
92.8388
89.5131
86.2553
83.0596
79.9637
76.9241
73.9661
71.0882
68.2851
65.5645
62.9247
60.707
58.5225
56.4084
54.35
52.3544
50.4174
48.5397
46.7256
44.9752
43.273
41.6411
40.0551
38.5375
37.0678
35.6527
34.2932
32.9811
31.7184
30.5081
29.3375
28.2234
27.1479
26.1182
25.1268
24.1791
23.2643
22.3923
21.555
20.7559
19.9843
19.2524
18.5433
17.8704
17.222
16.6041
16.0083
15.4414
14.8943
14.3748
13.8728
13.3975
12.9346
12.4981
12.0748
11.6729
11.2851
10.9142
10.5572
10.2179
9.88905
9.57632
9.27346
8.98629
8.70869
8.44362
8.1871
7.94321
7.70622
7.481
7.26268
7.0554
6.85343
6.66212
6.47608
6.29888
6.12697
5.96208
5.80277
5.65105
5.50354
5.3628
5.22553
5.09526
4.96834
4.84666
4.72857
4.61563
4.50505
4.39913
4.29533
4.19654
4.09908
4.0066
3.91608
3.82951
3.74527
3.66384
3.58437
3.5092
3.43612
3.36019
3.3141
3.19505
3.20136
3.19929
3.84618
3.86745
2.12569
1.85807
1.82159
1.79837
1.7684
1.78742
1.74226
2.23096
2.434
2.47069
2.4197
2.37846
3.21011
3.80941
1.84872
1.56818
1.4817
1.48839
1.51623
1.53624
1.51816
1.49315
1.49238
1.48722
1.47719
1.46297
1.44443
1.42151
1.40142
1.37783
1.35805
1.3407
1.32378
1.30739
1.29121
1.27562
1.26031
1.24547
1.2309
1.21692
1.20312
1.18987
1.17682
1.16436
1.15201
1.14008
1.12865
1.11665
1.10699
1.09352
1.08247
1.07288
1.06348
1.05419
1.04491
1.03589
1.02699
1.01829
1.00977
1.00159
0.993519
0.985783
0.978138
0.970875
0.963654
0.956642
0.950074
0.942878
0.937723
0.929197
0.922583
0.917221
0.912009
0.906782
0.901561
0.896412
0.891336
0.886347
0.881444
0.876747
0.872085
0.867617
0.863183
0.858974
0.854781
0.850643
0.846903
0.842451
0.839811
0.83417
0.82999
0.826917
0.823991
0.820982
0.817954
0.814903
0.811904
0.808895
0.805944
0.803121
0.800299
0.79761
0.794935
0.792377
0.789865
0.787263
0.785093
0.782137
0.780795
0.776955
0.774038
0.772216
0.770554
0.768758
0.766952
0.765069
0.763218
0.761323
0.759472
0.75769
0.755907
0.75419
0.752491
0.750842
0.749249
0.747525
0.746196
0.744172
0.743449
0.740733
0.738582
0.737458
0.736502
0.735404
0.734306
0.733092
0.731915
0.730661
0.729445
0.728268
0.727078
0.725937
0.724805
0.7237
0.722659
0.721452
0.720613
0.719155
0.718745
0.716695
0.715025
0.714305
0.713766
0.713059
0.712359
0.711524
0.710714
0.709822
0.70895
0.708104
0.70724
0.706402
0.70557
0.704738
0.703975
0.703027
0.702428
0.701265
0.700995
0.699288
0.697857
0.697325
0.696964
0.696445
0.695925
0.695274
0.694642
0.69393
0.693228
0.692552
0.69186
0.691175
0.690523
0.689837
0.689241
0.688447
0.687984
0.687018
0.686816
0.685335
0.684067
0.683654
0.683418
0.683021
0.682636
0.682131
0.681647
0.6811
0.680596
0.680179
0.679785
0.679463
0.679245
0.67899
0.678753
0.678245
0.677904
0.67709
0.676899
0.675519
0.674329
0.673983
0.673908
0.673669
0.673535
0.673257
0.672983
0.672609
0.672219
0.671802
0.671346
0.670864
0.670398
0.669881
0.669436
0.668801
0.668445
0.667668
0.667504
0.666236
0.665121
0.664805
0.664647
0.664338
0.66403
0.663591
0.663177
0.66268
0.662203
0.661738
0.661271
0.660802
0.660368
0.659895
0.659505
0.658941
0.658644
0.657981
0.657851
0.656712
0.655716
0.655476
0.655422
0.655196
0.654969
0.654622
0.654301
0.653894
0.653519
0.653135
0.652762
0.652369
0.652033
0.651616
0.65132
0.650817
0.650551
0.649942
0.649814
0.648705
0.647762
0.647473
0.6474
0.647096
0.646846
0.646399
0.645981
0.645424
0.644863
0.644222
0.643644
0.642993
0.642275
0.641441
0.640737
0.639845
0.639208
0.638136
0.637786
0.636292
0.635084
0.634663
0.634438
0.634143
0.633927
0.633641
0.633407
0.633121
0.632893
0.63267
0.632451
0.632238
0.63204
0.631792
0.631583
0.631261
0.631084
0.630634
0.630548
0.629632
0.62883
0.628643
0.628646
0.628485
0.628334
0.628057
0.627806
0.627449
0.627154
0.626821
0.626547
0.626197
0.62597
0.625631
0.62541
0.625052
0.624891
0.624475
0.624417
0.62359
0.622922
0.622839
0.622926
0.622902
0.622847
0.622751
0.622663
0.622483
0.622369
0.622211
0.622145
0.621972
0.621918
0.621842
0.621739
0.621671
0.621651
0.621566
0.621649
0.621126
0.620735
0.620876
0.621226
0.621497
0.621734
0.621959
0.622001
0.622194
0.622466
0.622613
0.622785
0.622959
0.623121
0.623365
0.623502
0.623684
0.623867
0.624017
0.624009
0.623581
0.62304
0.623318
0.623893
0.624068
0.624113
0.62397
0.623761
0.623637
0.623679
0.623119
0.622943
0.622329
0.621863
0.621429
0.62067
0.620024
0.619294
0.618283
0.617358
0.615644
0.614118
0.612817
0.611574
0.609859
0.608053
0.606051
0.603885
0.601396
0.598656
0.595593
0.592334
0.588699
0.584831
0.580584
0.576096
0.571186
0.565959
0.560259
0.554681
0.547407
0.540317
0.533118
0.525317
0.5169
0.507791
0.498
0.487462
0.476284
0.464369
0.45179
0.438452
0.424452
0.409418
0.394058
0.377471
0.359966
0.34241
0.323205
0.304172
0.283612
0.263945
0.243244
0.223626
0.204372
0.185863
0.167116
0.150477
0.135065
0.121516
0.109482
0.100094
0.0921027
0.0853988
0.0794269
0.0740171
0.0686068
0.0628893
0.0569714
0.0512212
0.0462448
0.0425791
0.0406032
0.0400214
0.0400542
0.0404349
0.0404718
0.0395623
0.0354669
0.0265626
0.0140053
0.367767
0.613506
0.909586
1.17517
1.27144
1.60441
1.99899
2.40935
2.84502
3.36828
3.99513
5.56162
6.14667
6.9001
7.68314
8.5004
9.34767
10.2309
11.1417
12.0898
13.0634
14.0758
15.113
16.1892
17.2881
18.4277
19.587
20.7829
22.0066
23.2606
24.5414
25.8534
27.1976
28.5593
29.9565
31.3796
32.8304
34.3083
35.8132
37.344
38.898
40.4789
42.0894
43.7116
45.3741
47.0416
48.7434
50.4652
52.2144
53.9691
55.7566
57.5589
59.3813
61.2228
63.0875
64.9542
66.8589
68.7561
70.6832
72.6179
74.5703
76.5456
78.5117
80.5134
82.4997
84.5235
86.5261
88.5616
90.5927
92.6371
94.6808
96.7327
98.7858
100.854
102.897
104.966
107.023
109.087
111.146
113.21
115.245
117.301
119.336
121.371
123.395
125.413
127.418
129.423
131.408
133.386
135.346
137.297
139.228
141.15
143.05
144.942
146.807
148.662
150.493
152.31
154.108
155.865
157.621
159.347
161.049
162.732
164.394
166.016
167.635
169.202
170.762
172.291
173.79
175.265
176.711
178.136
179.511
180.885
182.199
183.509
184.775
186.018
187.226
188.407
189.554
190.675
191.749
192.809
193.826
194.818
195.764
196.691
197.576
198.433
199.251
200.038
200.789
201.511
202.192
202.844
203.454
204.035
204.576
205.087
205.558
206.003
206.403
206.768
207.103
207.388
207.655
207.866
208.045
208.222
208.322
208.411
208.491
208.478
208.472
208.38
208.174
208.062
207.857
207.491
207.192
206.857
206.474
206.044
205.548
205.061
204.48
203.869
203.173
202.494
201.716
200.906
200.009
199.131
198.143
197.122
196.04
194.904
193.706
192.463
191.155
189.79
188.326
186.877
185.276
183.707
182.014
180.286
178.483
176.592
174.699
172.669
170.659
168.536
166.365
164.131
161.833
159.483
157.068
154.604
152.084
149.52
146.902
144.239
141.527
138.783
135.996
133.159
130.319
127.441
124.535
121.615
118.671
115.731
112.772
109.812
106.852
103.901
100.96
98.0312
95.1179
92.2262
89.3697
86.5326
83.7341
80.9757
78.2562
75.5826
72.9549
70.3789
67.8533
65.3766
62.9725
60.6135
58.3156
56.0792
53.8997
51.7855
49.7437
47.9697
46.2257
44.5386
42.8969
41.3065
39.7632
38.2676
36.8247
35.4313
34.0811
32.7828
31.5245
30.3169
29.1488
28.0294
26.9507
25.9103
24.9095
23.9502
23.0254
22.1405
21.291
20.4746
19.6902
18.9415
18.218
17.527
16.8662
16.2341
15.6258
15.0466
14.4874
13.9546
13.4417
12.9553
12.4852
12.0375
11.6061
11.1959
10.8011
10.4249
10.0612
9.71614
9.38288
9.06646
8.76097
8.46815
8.18764
7.92025
7.66205
7.41558
7.17768
6.95112
6.7323
6.52449
6.32277
6.13085
5.94465
5.76742
5.59636
5.43278
5.27467
5.12386
4.97778
4.83875
4.70363
4.57378
4.44901
4.32971
4.21422
4.10352
3.996
3.89343
3.79356
3.69849
3.60581
3.51712
3.43043
3.34726
3.26618
3.18834
3.11235
3.03963
2.96873
2.90103
2.83497
2.77101
2.70893
2.64996
2.5925
2.53404
2.49045
2.41163
2.40421
2.39057
2.63269
2.66116
1.82332
1.65274
1.62183
1.60011
1.56187
1.58974
1.55264
1.78807
1.86308
1.88349
1.8387
1.824
2.109
2.43146
1.51639
1.33477
1.28029
1.27717
1.28081
1.27379
1.2539
1.23738
1.2317
1.22096
1.20695
1.1916
1.17479
1.15563
1.13888
1.11987
1.10343
1.08889
1.07497
1.06143
1.04817
1.03532
1.02267
1.01058
0.998578
0.987091
0.975759
0.964856
0.954194
0.943844
0.933799
0.923937
0.914588
0.904753
0.896713
0.886086
0.876892
0.868789
0.861044
0.853379
0.845806
0.838387
0.831036
0.824005
0.817002
0.810293
0.803683
0.797332
0.791115
0.785061
0.779228
0.773434
0.768082
0.762204
0.757864
0.751298
0.745772
0.741155
0.736834
0.732511
0.728257
0.724034
0.719828
0.715834
0.711801
0.707957
0.704146
0.700482
0.696899
0.693365
0.690014
0.686592
0.683563
0.679949
0.677678
0.673451
0.669972
0.667252
0.664805
0.662311
0.65986
0.657373
0.654883
0.652521
0.650102
0.647809
0.645519
0.643328
0.641196
0.639033
0.637065
0.634924
0.633185
0.630823
0.629628
0.62684
0.624454
0.622779
0.621376
0.61989
0.618448
0.616935
0.615401
0.613963
0.612458
0.611031
0.609604
0.608224
0.606903
0.605503
0.604297
0.602896
0.601854
0.60027
0.599615
0.597721
0.595991
0.594911
0.594098
0.593195
0.592342
0.591391
0.590421
0.589518
0.588545
0.587625
0.586696
0.5858
0.584953
0.58401
0.583261
0.582299
0.581665
0.580551
0.580195
0.578823
0.577498
0.576761
0.576296
0.575723
0.575201
0.57457
0.573907
0.573305
0.57262
0.571977
0.571318
0.570675
0.570077
0.569365
0.568846
0.568102
0.567668
0.566801
0.566577
0.565469
0.564344
0.56377
0.563453
0.56304
0.562667
0.562191
0.561677
0.561226
0.560685
0.560184
0.559671
0.559157
0.558708
0.558121
0.557738
0.557125
0.556804
0.5561
0.555945
0.555007
0.554018
0.553545
0.553333
0.553022
0.552761
0.552408
0.552019
0.551708
0.551338
0.551062
0.55081
0.550606
0.550521
0.550285
0.550177
0.549773
0.549518
0.548901
0.548733
0.547834
0.54689
0.546463
0.546363
0.546187
0.546138
0.545959
0.545732
0.545541
0.545238
0.544927
0.544583
0.54421
0.543887
0.543417
0.54313
0.542628
0.542374
0.5418
0.54167
0.540869
0.539994
0.539595
0.539434
0.539184
0.538973
0.538662
0.53832
0.538032
0.537668
0.537331
0.536993
0.536648
0.536367
0.535951
0.535722
0.535291
0.535096
0.534627
0.534529
0.533833
0.53306
0.532729
0.532647
0.532467
0.532323
0.532085
0.531816
0.531596
0.53131
0.531032
0.530765
0.530472
0.530264
0.529883
0.529722
0.529332
0.529146
0.528705
0.528605
0.527912
0.527172
0.526791
0.526684
0.526423
0.52625
0.525917
0.525558
0.525204
0.524749
0.524244
0.523793
0.523279
0.522745
0.522014
0.521512
0.520806
0.520331
0.519518
0.519245
0.518277
0.517355
0.516911
0.516737
0.516538
0.516436
0.516284
0.516119
0.516017
0.51587
0.515737
0.515602
0.515457
0.515355
0.515107
0.515001
0.514738
0.514609
0.514272
0.51419
0.513615
0.512971
0.51266
0.512602
0.512433
0.512321
0.512099
0.511862
0.511647
0.511399
0.511132
0.510914
0.510633
0.510484
0.510143
0.510019
0.509718
0.509592
0.509284
0.509215
0.50871
0.508176
0.507956
0.507967
0.507913
0.50788
0.507793
0.507672
0.507598
0.507487
0.507353
0.507292
0.507147
0.507132
0.50699
0.506948
0.506863
0.506849
0.506786
0.50682
0.506572
0.506267
0.506213
0.506422
0.50662
0.506828
0.507025
0.507041
0.507243
0.507466
0.507612
0.507767
0.507923
0.508094
0.508249
0.508431
0.50859
0.508784
0.508952
0.508923
0.508783
0.508293
0.508496
0.508991
0.509208
0.509341
0.509232
0.509068
0.50916
0.509337
0.508954
0.508958
0.50851
0.508377
0.508065
0.507636
0.507309
0.506925
0.506329
0.50574
0.504773
0.503767
0.502845
0.502018
0.500873
0.499673
0.498329
0.49684
0.495202
0.493292
0.49114
0.488844
0.486273
0.483539
0.480452
0.477282
0.473754
0.469994
0.465862
0.46182
0.456648
0.45141
0.446056
0.440317
0.4341
0.427355
0.420067
0.412195
0.403867
0.394871
0.385351
0.375203
0.364489
0.352893
0.34095
0.328028
0.314086
0.300021
0.284493
0.268829
0.251777
0.235102
0.217398
0.200209
0.18317
0.166612
0.149747
0.134432
0.120216
0.107553
0.096278
0.0872431
0.0795952
0.0731678
0.0675119
0.0624506
0.057523
0.0524517
0.0472945
0.0423303
0.0380398
0.0348432
0.0330285
0.032383
0.0322919
0.0325295
0.0325939
0.0320078
0.0290774
0.0223719
0.0126463
0.342687
0.553575
0.814063
1.06822
1.28436
1.6121
1.99741
2.40849
2.85477
3.36795
3.90738
4.85226
5.4238
6.07189
6.74832
7.45266
8.1817
8.94045
9.72218
10.5345
11.3685
12.2341
13.1212
14.0399
14.9782
15.9493
16.9375
17.9559
18.9974
20.0638
21.1529
22.2678
23.4086
24.5647
25.7505
26.9573
28.1875
29.4396
30.7145
32.0102
33.3257
34.6632
36.0244
37.3964
38.8004
40.2091
41.6466
43.0997
44.5745
46.0548
47.562
49.0805
50.6162
52.1669
53.7358
55.3075
56.9085
58.504
60.1242
61.7495
63.3904
65.0467
66.6982
68.3754
70.0428
71.7368
73.4163
75.1204
76.8211
78.531
80.2408
81.9557
83.6724
85.3972
87.1047
88.8306
90.5469
92.267
93.9838
95.7
97.3968
99.1063
100.799
102.49
104.173
105.848
107.513
109.175
110.821
112.459
114.083
115.698
117.296
118.884
120.455
122.017
123.557
125.087
126.597
128.093
129.573
131.02
132.465
133.883
135.282
136.663
138.026
139.356
140.683
141.965
143.243
144.492
145.718
146.922
148.104
149.263
150.387
151.503
152.575
153.64
154.67
155.679
156.661
157.618
158.549
159.455
160.327
161.183
162.007
162.807
163.573
164.32
165.035
165.724
166.385
167.018
167.624
168.202
168.752
169.274
169.766
170.23
170.666
171.075
171.454
171.809
172.13
172.421
172.689
172.917
173.131
173.3
173.45
173.593
173.669
173.75
173.809
173.789
173.782
173.703
173.538
173.442
173.273
172.978
172.743
172.472
172.163
171.814
171.419
171.022
170.553
170.055
169.498
168.945
168.315
167.656
166.934
166.218
165.415
164.585
163.704
162.778
161.804
160.788
159.721
158.603
157.411
156.22
154.914
153.624
152.236
150.816
149.334
147.782
146.221
144.553
142.895
141.142
139.352
137.506
135.608
133.663
131.666
129.625
127.539
125.413
123.244
121.034
118.785
116.505
114.19
111.834
109.472
107.077
104.661
102.23
99.7807
97.3305
94.8653
92.3973
89.9297
87.4675
85.0138
82.5683
80.1366
77.7215
75.3349
72.9636
70.6249
68.3182
66.0442
63.8071
61.6088
59.4521
57.338
55.2641
53.2495
51.2728
49.3471
47.4717
45.6447
43.8727
42.1685
40.6536
39.1678
37.7299
36.332
34.9777
33.6645
32.3933
31.1651
29.9794
28.8305
27.7299
26.6612
25.6349
24.6437
23.6917
22.7771
21.894
21.0449
20.2321
19.4468
18.6971
17.9759
17.2845
16.6195
15.9834
15.3711
14.7864
14.2255
13.6895
13.1734
12.6837
12.2102
11.7585
11.3244
10.9115
10.5141
10.1348
9.76968
9.42263
9.08782
8.76971
8.46155
8.16971
7.88772
7.61911
7.36105
7.11376
6.876
6.64948
6.43068
6.22273
6.02151
5.82966
5.64469
5.46842
5.29808
5.1356
4.97817
4.82839
4.68342
4.54528
4.41138
4.28393
4.16034
4.04233
3.92826
3.81873
3.71296
3.61192
3.51403
3.42069
3.32975
3.24291
3.15854
3.07789
2.99965
2.92458
2.85129
2.78104
2.7123
2.64666
2.58234
2.52097
2.46101
2.40356
2.34787
2.29403
2.24139
2.19149
2.14247
2.09411
2.05267
1.99451