/*--------------------------------*- C++ -*----------------------------------*\
  =========                 |
  \\      /  F ield         | OpenFOAM: The Open Source CFD Toolbox
   \\    /   O peration     | Website:  https://openfoam.org
    \\  /    A nd           | Version:  9
     \\/     M anipulation  |
\*---------------------------------------------------------------------------*/
FoamFile
{
    format      ascii;
    class       volScalarField;
    location    "489";
    object      k;
}
// * * * * * * * * * * * * * * * * * * * * * * * * * * * * * * * * * * * * * //

dimensions      [0 2 -2 0 0 0 0];

internalField   nonuniform List<scalar> 
203528
(
0.032285
0.0583267
0.0837217
0.104314
0.105517
0.121212
0.140424
0.123813
0.142504
0.161123
0.180234
0.145836
0.161902
0.175764
0.190388
0.205197
0.22011
0.235323
0.250579
0.266163
0.281735
0.297649
0.313524
0.329759
0.345903
0.362458
0.378899
0.395586
0.412345
0.429282
0.446246
0.463344
0.480682
0.497908
0.515294
0.532802
0.55037
0.568052
0.585789
0.603661
0.621514
0.639463
0.65762
0.675572
0.693882
0.711991
0.730216
0.748513
0.76701
0.785281
0.803688
0.822164
0.840592
0.859078
0.877729
0.896078
0.914805
0.93323
0.951773
0.9703
0.988731
1.00752
1.02582
1.04456
1.06278
1.08152
1.09968
1.11815
1.13642
1.15479
1.17298
1.19121
1.20921
1.22757
1.2453
1.26329
1.28106
1.29886
1.31644
1.3343
1.35151
1.36898
1.38615
1.40333
1.42028
1.43722
1.45387
1.47059
1.48703
1.50345
1.51957
1.53571
1.55152
1.56732
1.58281
1.59832
1.61348
1.62863
1.64346
1.65821
1.67291
1.68711
1.70123
1.71526
1.72894
1.74252
1.75601
1.76902
1.78212
1.79476
1.80722
1.8196
1.83161
1.84351
1.85508
1.86672
1.87765
1.88884
1.89931
1.90988
1.92003
1.93008
1.93976
1.94931
1.95849
1.96765
1.9762
1.98476
1.99291
2.001
2.00853
2.01603
2.0231
2.03004
2.03656
2.04291
2.04885
2.05466
2.06003
2.06526
2.07004
2.07466
2.07882
2.08284
2.08636
2.08973
2.09265
2.09528
2.09764
2.09956
2.10124
2.10264
2.10333
2.10421
2.10458
2.10439
2.10435
2.1039
2.10314
2.10197
2.09964
2.09796
2.09577
2.09229
2.08871
2.08518
2.08118
2.07699
2.07179
2.06698
2.06134
2.05564
2.04877
2.04233
2.03505
2.02767
2.01911
2.01108
2.00211
1.99289
1.98308
1.97298
1.96223
1.95126
1.9397
1.92798
1.91496
1.90263
1.88863
1.87521
1.86075
1.84609
1.83088
1.81475
1.79889
1.78178
1.7649
1.74733
1.72917
1.7107
1.69156
1.67218
1.65214
1.63184
1.61093
1.58982
1.56813
1.54619
1.52367
1.50099
1.47786
1.45426
1.43055
1.40658
1.38218
1.3577
1.33276
1.30796
1.28275
1.25754
1.23207
1.20666
1.18109
1.1556
1.12997
1.10442
1.07897
1.0536
1.02827
1.0032
0.978197
0.9535
0.928927
0.904711
0.880676
0.856927
0.833655
0.810624
0.787893
0.765631
0.743626
0.722105
0.700588
0.68505
0.66966
0.654648
0.639723
0.625107
0.610638
0.596296
0.582507
0.568881
0.555399
0.542294
0.529398
0.516775
0.504391
0.492324
0.480558
0.469017
0.457769
0.446814
0.436051
0.42567
0.41554
0.405601
0.395958
0.386612
0.377445
0.368428
0.359972
0.351638
0.34346
0.335621
0.327912
0.32046
0.313198
0.306201
0.299342
0.29275
0.286288
0.280092
0.27401
0.268179
0.262443
0.256932
0.251532
0.246367
0.241297
0.236313
0.23163
0.227043
0.222528
0.218193
0.213959
0.20987
0.205879
0.202036
0.198265
0.194651
0.191088
0.18768
0.184331
0.181117
0.177964
0.174927
0.17195
0.169098
0.166288
0.163536
0.160937
0.158387
0.15588
0.153469
0.151103
0.148819
0.146574
0.144414
0.142289
0.140245
0.138222
0.136272
0.13434
0.132483
0.130641
0.12887
0.127123
0.125444
0.123791
0.12217
0.120615
0.119096
0.117592
0.116078
0.11483
0.112889
0.110982
0.109242
0.119487
0.121239
0.13283
0.131869
0.131437
0.130641
0.12985
0.111166
0.102158
0.0980309
0.0960239
0.0954357
0.0948516
0.0911637
0.104174
0.10899
0.109899
0.111713
0.108849
0.107534
0.108679
0.110586
0.111253
0.108803
0.107128
0.106592
0.106319
0.105976
0.104732
0.103218
0.101822
0.100197
0.0988347
0.0975618
0.0963066
0.0950862
0.0938843
0.0927143
0.0915617
0.0904492
0.0893474
0.0882883
0.0872354
0.086223
0.0852189
0.0842553
0.0833
0.0823736
0.0814615
0.0805478
0.0797454
0.0787188
0.0778899
0.0771049
0.0763258
0.0755563
0.0747929
0.0740411
0.0732985
0.0725792
0.0718669
0.0711813
0.0705008
0.0698467
0.0691953
0.068572
0.0679531
0.0673505
0.066761
0.0661644
0.0656656
0.0649667
0.0644357
0.0639409
0.0634475
0.0629578
0.062474
0.0619902
0.0615139
0.0610527
0.0605933
0.060152
0.0597112
0.0592877
0.0588632
0.0584577
0.0580547
0.0576581
0.0572724
0.0568697
0.0565602
0.056054
0.0557034
0.0553781
0.0550533
0.0547274
0.054405
0.0540765
0.0537538
0.0534389
0.053125
0.0528236
0.0525209
0.0522323
0.0519407
0.0516615
0.0513868
0.0511075
0.0508446
0.0505515
0.0503589
0.049965
0.0497211
0.0494995
0.0492759
0.0490477
0.0488237
0.0485898
0.0483598
0.0481363
0.0479119
0.0476965
0.0474791
0.0472711
0.0470607
0.0468576
0.0466616
0.0464558
0.0462684
0.0460494
0.0459193
0.0456187
0.0454373
0.0452791
0.0451205
0.0449568
0.0447986
0.044627
0.0444604
0.0442969
0.0441331
0.0439751
0.0438154
0.0436635
0.0435087
0.04336
0.0432189
0.0430644
0.0429296
0.0427632
0.0426728
0.042439
0.0423036
0.0421894
0.0420762
0.0419562
0.0418423
0.0417135
0.0415884
0.0414662
0.0413417
0.0412228
0.0411005
0.0409848
0.0408654
0.0407502
0.0406432
0.0405201
0.0404172
0.0402831
0.0402154
0.0400224
0.0399139
0.0398254
0.0397373
0.0396433
0.0395546
0.0394514
0.0393511
0.0392541
0.0391538
0.0390592
0.0389611
0.0388687
0.0387744
0.0386814
0.0385991
0.0384983
0.038418
0.0383083
0.0382564
0.0380947
0.0380075
0.0379392
0.0378717
0.0377983
0.0377314
0.0376511
0.0375738
0.0375013
0.0374292
0.037369
0.0373091
0.0372624
0.037221
0.0371829
0.0371515
0.0370923
0.0370442
0.0369645
0.0369282
0.0367936
0.0367228
0.0366733
0.0366253
0.0365784
0.0365423
0.0364937
0.0364499
0.0364065
0.0363565
0.036307
0.0362511
0.0361968
0.0361386
0.036079
0.0360283
0.0359579
0.0359044
0.0358255
0.0357913
0.0356657
0.0356026
0.0355565
0.0355088
0.0354564
0.035409
0.0353473
0.0352879
0.0352314
0.0351718
0.035117
0.035059
0.0350059
0.034951
0.0348966
0.0348529
0.034791
0.0347466
0.0346802
0.0346533
0.0345448
0.0344953
0.0344619
0.0344272
0.0343877
0.0343545
0.0343075
0.0342631
0.0342214
0.0341771
0.0341363
0.0340929
0.0340533
0.0340127
0.0339698
0.0339407
0.0338873
0.0338528
0.0337973
0.0337756
0.0336763
0.0336348
0.0336026
0.0335715
0.033529
0.0334979
0.0334448
0.0333962
0.0333445
0.033287
0.033226
0.0331666
0.0331058
0.0330336
0.0329538
0.0328878
0.0328015
0.0327288
0.0326343
0.0325869
0.0324461
0.0323784
0.0323327
0.0322874
0.0322466
0.0322157
0.0321784
0.0321467
0.0321235
0.0320999
0.0320813
0.0320601
0.0320441
0.0320241
0.0320037
0.0319914
0.0319625
0.0319425
0.0319063
0.0318949
0.0318179
0.0317921
0.0317715
0.0317555
0.0317276
0.0317097
0.0316737
0.0316416
0.0316104
0.0315774
0.0315452
0.0315131
0.0314811
0.0314526
0.0314167
0.0313984
0.0313575
0.0313354
0.0312911
0.0312783
0.0312012
0.0311779
0.0311582
0.0311459
0.0311231
0.0311102
0.0310822
0.0310553
0.0310317
0.0310072
0.0309821
0.0309634
0.0309368
0.0309224
0.0308947
0.030885
0.030861
0.0308454
0.0308216
0.0308129
0.0307504
0.0307393
0.0307406
0.0307374
0.0307325
0.0307284
0.0307223
0.0307064
0.0307088
0.0307133
0.030714
0.0307142
0.03072
0.0307184
0.030728
0.0307361
0.0307431
0.0307517
0.0307557
0.0307583
0.0307183
0.0307205
0.0307373
0.0307722
0.030799
0.0308127
0.0308089
0.0307906
0.0307981
0.0308039
0.030802
0.0307935
0.0307728
0.0307604
0.0307515
0.0307316
0.0307165
0.0307032
0.0306764
0.030652
0.0305807
0.0305646
0.0305339
0.0304884
0.0304263
0.0303695
0.0303007
0.0302294
0.0301495
0.0300527
0.0299437
0.0298267
0.0296916
0.0295437
0.0293805
0.0292153
0.029021
0.0288139
0.0286014
0.0283864
0.0280679
0.0278158
0.027538
0.0272258
0.0268915
0.0265268
0.0261275
0.025698
0.0252483
0.0247652
0.0242616
0.0237329
0.0231828
0.0225864
0.0219996
0.0213322
0.0206415
0.0199732
0.0191869
0.0184427
0.0175628
0.0168077
0.0159268
0.0151379
0.014314
0.0134814
0.0125513
0.0117569
0.0109591
0.0102437
0.00956823
0.00907063
0.00860488
0.00819903
0.00779988
0.00741178
0.00697763
0.00647924
0.00593059
0.00536873
0.00485464
0.00447294
0.00424814
0.00418975
0.00422441
0.00433088
0.00439787
0.0043637
0.0039189
0.0028663
0.00128854
0.048578
0.0789618
0.106412
0.127069
0.138205
0.157718
0.18191
0.205735
0.230043
0.255917
0.284077
0.290404
0.319242
0.344008
0.369672
0.395588
0.421514
0.447849
0.474154
0.5009
0.527579
0.554729
0.581792
0.609352
0.636785
0.66476
0.692598
0.720745
0.749037
0.777524
0.806095
0.834809
0.863912
0.892789
0.921964
0.951245
0.980675
1.0102
1.03986
1.06964
1.09945
1.12933
1.15956
1.18941
1.21984
1.24988
1.28017
1.31044
1.34106
1.37125
1.40171
1.43214
1.46258
1.49297
1.52365
1.55379
1.58451
1.61466
1.64507
1.67529
1.70546
1.73595
1.76584
1.79618
1.82587
1.85611
1.88562
1.9154
1.94495
1.97446
2.00379
2.03298
2.06194
2.09115
2.1196
2.14822
2.17658
2.20478
2.23278
2.26088
2.28819
2.31565
2.34276
2.36965
2.3963
2.42272
2.4488
2.47475
2.50039
2.52577
2.55081
2.57564
2.6001
2.62432
2.64818
2.67184
2.69509
2.71811
2.74077
2.7631
2.78542
2.80685
2.82826
2.8493
2.86997
2.89028
2.91054
2.92996
2.94958
2.96837
2.98704
3.00535
3.02331
3.04089
3.05817
3.07529
3.09163
3.10809
3.12376
3.13935
3.15451
3.16936
3.18387
3.19803
3.21186
3.22547
3.23847
3.25129
3.26375
3.27596
3.28763
3.29911
3.31022
3.321
3.33144
3.3415
3.35126
3.36069
3.36979
3.37856
3.38699
3.39507
3.40281
3.41025
3.41731
3.42407
3.43047
3.43641
3.44225
3.44742
3.45258
3.45716
3.46115
3.46533
3.46921
3.47206
3.47563
3.47849
3.4814
3.48357
3.48401
3.4857
3.48716
3.48613
3.48536
3.48482
3.48392
3.48257
3.48026
3.47829
3.47547
3.47234
3.468
3.46405
3.45918
3.45395
3.44746
3.44144
3.43432
3.42666
3.4184
3.40948
3.39986
3.38966
3.3788
3.36735
3.35435
3.34187
3.32726
3.31307
3.29747
3.28124
3.26423
3.24564
3.22734
3.2069
3.18677
3.16513
3.14269
3.11925
3.09484
3.06953
3.0432
3.01594
2.98772
2.95862
2.92858
2.89757
2.86559
2.83277
2.79913
2.76422
2.72897
2.69274
2.6557
2.61794
2.57937
2.54034
2.50057
2.46019
2.41931
2.37793
2.33618
2.29397
2.25143
2.20852
2.16561
2.12232
2.07901
2.03566
1.99232
1.94903
1.9059
1.86291
1.82019
1.77757
1.73565
1.6938
1.65246
1.61154
1.57106
1.53105
1.49134
1.45329
1.41554
1.37856
1.34219
1.30652
1.27153
1.23728
1.20368
1.171
1.13883
1.10765
1.07697
1.04733
1.01822
0.98996
0.962419
0.935609
0.909467
0.884169
0.859386
0.835531
0.812213
0.789706
0.767747
0.74657
0.725846
0.705971
0.686539
0.667862
0.649614
0.632132
0.614979
0.598564
0.58253
0.567131
0.552089
0.537655
0.523561
0.510068
0.496869
0.484235
0.471809
0.459998
0.448409
0.437326
0.426489
0.416072
0.405903
0.396166
0.386629
0.377485
0.368533
0.359984
0.351619
0.343584
0.33572
0.328191
0.320796
0.313729
0.306802
0.300166
0.293645
0.287434
0.28133
0.275486
0.269743
0.264221
0.258823
0.253646
0.248572
0.243695
0.238894
0.234316
0.229801
0.225462
0.221204
0.21711
0.213068
0.209176
0.205329
0.20164
0.197972
0.194479
0.19103
0.187718
0.184455
0.181298
0.178194
0.17524
0.172302
0.169461
0.166692
0.164329
0.156103
0.148468
0.15068
0.152138
0.165894
0.165731
0.165197
0.162578
0.161951
0.154785
0.151896
0.137502
0.127431
0.125009
0.123115
0.117579
0.122456
0.125326
0.136041
0.137278
0.136714
0.134351
0.133486
0.1345
0.134123
0.132208
0.130731
0.130224
0.130061
0.129588
0.128212
0.12663
0.125149
0.123464
0.122029
0.120699
0.119378
0.118095
0.116825
0.115599
0.114385
0.113213
0.112052
0.110936
0.109825
0.108757
0.107698
0.106681
0.105668
0.104695
0.103729
0.10277
0.101905
0.100833
0.0999494
0.0991261
0.0983016
0.0974866
0.0966734
0.0958816
0.0950956
0.0943343
0.0935808
0.092855
0.092135
0.0914423
0.0907527
0.090093
0.0894331
0.0887993
0.0881734
0.087548
0.0870061
0.0862748
0.0857064
0.0851898
0.0846679
0.0841491
0.0836318
0.0831224
0.0826187
0.0821303
0.0816442
0.0811772
0.0807105
0.0802621
0.0798131
0.0793843
0.0789537
0.0785377
0.0781279
0.0777082
0.0773677
0.0768397
0.0764629
0.0761262
0.0757843
0.0754398
0.0750946
0.0747499
0.0744096
0.0740768
0.0737458
0.0734276
0.0731084
0.0728038
0.072496
0.072202
0.0719079
0.0716165
0.0713372
0.0710346
0.0708182
0.0704095
0.070147
0.0699201
0.0696861
0.0694457
0.0692056
0.0689609
0.0687196
0.0684839
0.0682481
0.0680211
0.0677925
0.0675734
0.0673519
0.0671388
0.0669283
0.0667146
0.0665156
0.0662908
0.0661444
0.0658277
0.0656339
0.0654752
0.0653103
0.0651387
0.0649683
0.0647892
0.0646147
0.0644424
0.0642704
0.064104
0.0639361
0.0637762
0.0636131
0.0634576
0.0633051
0.0631449
0.0630016
0.0628308
0.0627311
0.0624799
0.0623339
0.0622216
0.0621048
0.0619789
0.0618551
0.0617203
0.0615893
0.06146
0.0613289
0.061203
0.061074
0.0609518
0.0608254
0.0607046
0.0605875
0.0604596
0.0603497
0.0602112
0.0601382
0.0599271
0.0598083
0.0597223
0.0596314
0.0595324
0.0594348
0.0593263
0.0592209
0.0591175
0.0590111
0.0589105
0.0588064
0.0587081
0.0586075
0.0585096
0.0584181
0.0583127
0.0582263
0.0581121
0.0580572
0.057878
0.0577799
0.0577145
0.0576449
0.0575672
0.0574924
0.0574074
0.0573258
0.0572482
0.0571722
0.057108
0.0570452
0.0569964
0.0569528
0.0569134
0.0568747
0.0568115
0.0567574
0.0566726
0.0566344
0.0564818
0.0563997
0.0563539
0.0563052
0.056257
0.0562152
0.0561642
0.0561181
0.0560701
0.0560155
0.055961
0.0559
0.0558408
0.0557771
0.0557132
0.0556542
0.0555795
0.0555208
0.0554373
0.0554021
0.0552603
0.0551853
0.055142
0.0550926
0.0550365
0.0549815
0.0549151
0.0548514
0.0547895
0.0547249
0.0546649
0.0546019
0.0545439
0.0544837
0.0544253
0.0543738
0.054308
0.054259
0.0541881
0.054161
0.054038
0.0539766
0.0539463
0.0539103
0.0538681
0.0538282
0.0537774
0.0537294
0.0536831
0.0536345
0.0535892
0.0535416
0.0534978
0.0534527
0.0534063
0.05337
0.0533128
0.0532746
0.0532144
0.0531927
0.0530796
0.0530255
0.0529955
0.0529628
0.0529169
0.0528787
0.0528205
0.0527671
0.0527088
0.052644
0.052576
0.0525111
0.052442
0.0523597
0.0522715
0.0521948
0.0521002
0.0520188
0.0519162
0.0518629
0.0517048
0.0516233
0.0515772
0.0515296
0.0514846
0.051447
0.0514056
0.0513718
0.0513447
0.051318
0.0512961
0.051272
0.051253
0.0512301
0.0512071
0.0511898
0.0511572
0.0511348
0.0510949
0.0510843
0.0509969
0.0509582
0.0509408
0.0509241
0.0508941
0.0508705
0.0508312
0.0507965
0.0507611
0.0507246
0.0506886
0.050653
0.0506172
0.0505852
0.0505464
0.0505235
0.0504784
0.0504543
0.0504068
0.0503952
0.0503092
0.0502744
0.0502588
0.050247
0.0502233
0.0502067
0.0501766
0.0501489
0.0501235
0.0500974
0.0500708
0.0500505
0.0500224
0.0500067
0.0499792
0.049966
0.0499414
0.0499259
0.0499019
0.0498941
0.0498291
0.0498091
0.0498168
0.0498152
0.0498138
0.0498102
0.049805
0.0497888
0.0497957
0.0498018
0.0498018
0.0498035
0.0498113
0.0498072
0.0498216
0.0498299
0.0498376
0.0498492
0.0498464
0.0498513
0.0498112
0.0497993
0.0498311
0.0498696
0.0498966
0.0498944
0.0498954
0.049866
0.0498827
0.0498768
0.0498727
0.0498433
0.0498192
0.0498039
0.0497834
0.0497516
0.049728
0.0497032
0.049659
0.0496158
0.0495305
0.0494846
0.0494327
0.0493624
0.0492739
0.0491884
0.0490903
0.0489871
0.0488682
0.0487294
0.0485749
0.0484079
0.0482194
0.0480133
0.0477883
0.0475521
0.0472862
0.0470016
0.0467055
0.0463975
0.0459884
0.0456207
0.04523
0.0447953
0.0443274
0.0438144
0.0432583
0.0426605
0.0420294
0.0413519
0.0406388
0.0398875
0.0390957
0.0382402
0.0373784
0.0364127
0.0354009
0.0343957
0.033244
0.0321143
0.0308396
0.0296509
0.0283221
0.0270831
0.0258116
0.0245113
0.0230922
0.0218332
0.0205874
0.0194496
0.0183794
0.0175592
0.0168089
0.0161499
0.0155128
0.0148925
0.0142117
0.013428
0.0125576
0.011653
0.0108206
0.0101754
0.0097928
0.00968745
0.00973246
0.00987637
0.00995586
0.00986114
0.00909359
0.00722284
0.00407579
0.0601214
0.0942489
0.124266
0.146802
0.162522
0.18573
0.214084
0.248648
0.277671
0.308698
0.344477
0.370588
0.403467
0.434501
0.46636
0.498502
0.530685
0.563298
0.595912
0.628991
0.66204
0.695587
0.729088
0.763116
0.797063
0.831579
0.86598
0.900741
0.935669
0.970823
1.00608
1.04154
1.07738
1.11303
1.14901
1.18513
1.22141
1.25781
1.29437
1.33107
1.36781
1.40465
1.44182
1.47867
1.51607
1.5531
1.5904
1.62771
1.66532
1.70253
1.74001
1.77746
1.8149
1.85232
1.88997
1.92712
1.96481
2.00193
2.03928
2.07644
2.11355
2.15092
2.1877
2.22489
2.26142
2.29845
2.33473
2.37126
2.40752
2.44372
2.47968
2.51547
2.551
2.58672
2.62162
2.65668
2.69141
2.72596
2.76025
2.79454
2.82801
2.86159
2.89473
2.92762
2.96018
2.99246
3.02432
3.05602
3.0873
3.11828
3.14884
3.17911
3.20894
3.23847
3.26755
3.29637
3.32469
3.35272
3.38029
3.40751
3.43455
3.46069
3.48671
3.51229
3.53739
3.56211
3.58663
3.61029
3.63403
3.65687
3.67952
3.70174
3.7235
3.74484
3.76578
3.78648
3.80634
3.82624
3.84525
3.86415
3.88251
3.90051
3.91809
3.93526
3.95202
3.96848
3.98426
3.99982
4.01492
4.02972
4.04391
4.05786
4.07135
4.08447
4.09716
4.10944
4.12133
4.13286
4.14397
4.15472
4.16503
4.17496
4.18448
4.19364
4.20235
4.21072
4.21865
4.22609
4.23334
4.2399
4.24636
4.25218
4.25737
4.26271
4.26767
4.27159
4.27618
4.27998
4.28377
4.28686
4.28779
4.29018
4.29239
4.29176
4.29112
4.29096
4.2903
4.2891
4.28691
4.28496
4.28201
4.27866
4.27404
4.26971
4.2643
4.25843
4.25122
4.24436
4.23622
4.22744
4.21791
4.20759
4.19641
4.18452
4.17178
4.15827
4.14309
4.1282
4.11103
4.0941
4.07553
4.05617
4.03576
4.01366
3.99154
3.96714
3.94277
3.91669
3.88956
3.86122
3.83165
3.80095
3.76897
3.73585
3.70151
3.66607
3.62943
3.59159
3.55254
3.51242
3.47123
3.42858
3.38533
3.34091
3.29547
3.24913
3.20177
3.15379
3.10488
3.05522
3.00489
2.95396
2.9025
2.8505
2.79804
2.74515
2.69216
2.63874
2.58527
2.53173
2.47819
2.42471
2.37138
2.31824
2.26539
2.21271
2.16078
2.10902
2.05783
2.00717
1.95703
1.90749
1.85839
1.81079
1.76362
1.71739
1.67193
1.62734
1.58361
1.54078
1.49881
1.45796
1.41777
1.37881
1.34057
1.30346
1.26706
1.23184
1.19741
1.16394
1.13127
1.09968
1.06873
1.0389
1.00989
0.981731
0.95429
0.927839
0.901955
0.877093
0.852849
0.829514
0.806719
0.784864
0.763502
0.742947
0.72289
0.70369
0.6849
0.666865
0.649255
0.632389
0.615896
0.600085
0.584638
0.569836
0.555352
0.54149
0.527941
0.514907
0.502213
0.490033
0.478107
0.466674
0.455518
0.444797
0.434321
0.424292
0.414458
0.405035
0.395785
0.38694
0.378271
0.369953
0.36184
0.354039
0.346396
0.339074
0.331878
0.324959
0.318207
0.311714
0.305352
0.299236
0.293244
0.287482
0.281811
0.276382
0.271042
0.265904
0.260832
0.255945
0.251115
0.246472
0.2419
0.237497
0.233163
0.228999
0.224896
0.220933
0.217038
0.21331
0.209615
0.206022
0.202554
0.199129
0.193237
0.186537
0.18379
0.181795
0.188969
0.187521
0.186432
0.183332
0.181927
0.177687
0.174744
0.166434
0.159761
0.15639
0.154079
0.148944
0.149334
0.148043
0.154743
0.155031
0.153909
0.151856
0.150863
0.151362
0.150416
0.148508
0.147107
0.14659
0.146315
0.145611
0.144037
0.142291
0.14064
0.138856
0.137251
0.135764
0.134298
0.132876
0.131475
0.130111
0.128762
0.127463
0.126173
0.12493
0.123692
0.122501
0.121319
0.12018
0.119053
0.11796
0.116876
0.115805
0.114817
0.113678
0.11266
0.111711
0.110773
0.10985
0.108933
0.108035
0.107143
0.106284
0.105429
0.104605
0.103787
0.102999
0.102214
0.101459
0.100711
0.0999858
0.0992699
0.0985581
0.0979217
0.0971494
0.0964737
0.0958585
0.0952497
0.09465
0.094054
0.0934662
0.092883
0.092321
0.0917595
0.0912189
0.0906786
0.0901585
0.089638
0.089138
0.0886404
0.0881565
0.0876789
0.0871943
0.0867808
0.0862316
0.0857686
0.0853535
0.0849448
0.084539
0.0841333
0.08373
0.083329
0.0829403
0.082552
0.0821779
0.0818029
0.0814442
0.081082
0.0807338
0.0803879
0.0800454
0.0797144
0.0793626
0.0790885
0.0786738
0.0783398
0.0780494
0.0777631
0.0774759
0.0771887
0.0769002
0.0766123
0.0763341
0.0760543
0.0757843
0.0755128
0.075252
0.0749885
0.0747337
0.0744827
0.0742307
0.0739921
0.0737295
0.0735395
0.0732218
0.0729719
0.072762
0.0725565
0.0723498
0.072143
0.0719317
0.0717219
0.0715175
0.0713122
0.0711135
0.0709131
0.070722
0.0705273
0.0703402
0.0701565
0.0699684
0.0697955
0.0695962
0.0694649
0.069217
0.069027
0.0688731
0.068725
0.0685729
0.0684211
0.068263
0.0681052
0.0679519
0.0677954
0.067645
0.067491
0.0673447
0.0671938
0.0670487
0.0669066
0.0667577
0.066625
0.0664638
0.0663667
0.0661619
0.0660063
0.0658851
0.0657687
0.0656494
0.065529
0.0654031
0.0652764
0.0651544
0.065028
0.0649083
0.0647845
0.0646676
0.0645481
0.064431
0.0643195
0.0641984
0.0640946
0.0639625
0.063889
0.0637199
0.0635904
0.063495
0.063405
0.063312
0.0632192
0.0631225
0.0630251
0.0629349
0.0628461
0.0627715
0.0626991
0.0626435
0.062594
0.062549
0.0625009
0.0624302
0.0623641
0.0622658
0.062213
0.0620722
0.061962
0.0618907
0.0618266
0.0617699
0.0617172
0.0616625
0.0616076
0.0615527
0.0614885
0.0614241
0.061352
0.0612817
0.061206
0.0611298
0.0610564
0.0609723
0.0609019
0.0608056
0.0607582
0.0606297
0.0605286
0.0604609
0.060396
0.0603291
0.0602599
0.0601861
0.0601105
0.060039
0.0599634
0.0598933
0.0598198
0.0597521
0.0596818
0.0596133
0.0595499
0.0594774
0.0594198
0.0593391
0.0593039
0.0591965
0.0591124
0.0590613
0.0590132
0.0589639
0.0589131
0.0588583
0.0588019
0.0587493
0.0586931
0.0586409
0.0585858
0.0585353
0.058483
0.0584292
0.0583833
0.0583215
0.0582764
0.0582081
0.0581805
0.058083
0.0580073
0.057957
0.0579123
0.0578588
0.0578096
0.0577462
0.0576828
0.0576156
0.0575392
0.0574597
0.0573841
0.0573026
0.0572047
0.0571003
0.0570068
0.0569002
0.0568043
0.0566865
0.0566175
0.0564707
0.0563641
0.056297
0.0562384
0.0561885
0.0561438
0.0561036
0.0560673
0.0560404
0.0560126
0.0559904
0.0559653
0.0559455
0.0559207
0.0558955
0.0558721
0.0558391
0.0558135
0.0557685
0.0557559
0.0556851
0.0556272
0.0555921
0.0555653
0.0555307
0.0554972
0.0554556
0.0554139
0.0553731
0.0553299
0.0552876
0.0552452
0.0552036
0.0551653
0.0551194
0.0550879
0.0550382
0.0550095
0.0549547
0.0549398
0.0548693
0.0548151
0.0547816
0.0547599
0.0547319
0.0547056
0.0546732
0.0546389
0.0546088
0.0545762
0.0545436
0.0545174
0.0544833
0.0544621
0.0544285
0.0544066
0.0543792
0.0543588
0.0543292
0.0543188
0.0542695
0.0542322
0.0542242
0.0542149
0.0542083
0.0542015
0.0541949
0.0541726
0.0541783
0.0541843
0.0541837
0.0541851
0.0541931
0.0541858
0.0542036
0.0542101
0.0542234
0.0542381
0.0542396
0.0542492
0.0542272
0.054204
0.0542344
0.0542785
0.0543162
0.0543173
0.0543304
0.0543013
0.0543311
0.0543377
0.0543357
0.0543182
0.0542976
0.0542989
0.0542848
0.0542661
0.054262
0.0542625
0.0542302
0.0542108
0.0541659
0.0541274
0.0540841
0.0540264
0.0539574
0.0538933
0.0538244
0.0537476
0.0536552
0.0535428
0.0534149
0.0532757
0.0531162
0.0529388
0.0527435
0.0525393
0.0523133
0.0520648
0.0518088
0.0515412
0.0511918
0.0508509
0.0505002
0.0501131
0.0496972
0.0492377
0.0487412
0.0481984
0.0476284
0.0470151
0.0463697
0.045692
0.0449742
0.0441933
0.0434082
0.0425232
0.0415791
0.0406379
0.039538
0.0384431
0.0371819
0.0359761
0.0346139
0.0333102
0.0319601
0.0305393
0.0289511
0.0274925
0.0260423
0.0246825
0.0233885
0.0223603
0.0214245
0.0205877
0.0197813
0.0189953
0.0181384
0.0171603
0.0160751
0.0149411
0.0138836
0.0130408
0.0125054
0.0123156
0.012327
0.0124792
0.0125906
0.012517
0.01167
0.00949388
0.00568001
0.0695414
0.106753
0.139071
0.164209
0.184791
0.211424
0.243221
0.281207
0.314029
0.349105
0.38967
0.426381
0.462415
0.497775
0.533932
0.57037
0.606886
0.643834
0.680817
0.718271
0.755734
0.793703
0.831668
0.87017
0.908638
0.947669
0.986628
1.02596
1.0655
1.10526
1.14516
1.18529
1.2258
1.26614
1.30685
1.34769
1.38872
1.42988
1.47123
1.51271
1.55427
1.59593
1.63792
1.67961
1.72186
1.76373
1.8059
1.84808
1.89054
1.93261
1.97498
2.01727
2.05959
2.10188
2.14437
2.18639
2.22891
2.27086
2.31305
2.35502
2.39696
2.4391
2.48069
2.52261
2.56392
2.60563
2.64665
2.68786
2.72881
2.76963
2.81022
2.8506
2.89073
2.93092
2.97036
3.00989
3.04908
3.08803
3.12673
3.16529
3.2031
3.24092
3.27829
3.31533
3.35204
3.38839
3.42432
3.46
3.49525
3.53012
3.56455
3.59862
3.63222
3.66544
3.6982
3.7306
3.7625
3.79401
3.82506
3.85566
3.88603
3.91545
3.94472
3.97345
4.0017
4.02947
4.05699
4.0836
4.11024
4.1359
4.16137
4.18629
4.21074
4.23467
4.25821
4.28136
4.30371
4.32595
4.34734
4.3685
4.38912
4.40927
4.429
4.44822
4.46702
4.48541
4.50313
4.52053
4.53747
4.55399
4.56992
4.58551
4.60063
4.61527
4.6295
4.64321
4.65653
4.6694
4.68185
4.69383
4.70539
4.71646
4.72712
4.73733
4.74708
4.7564
4.76528
4.77359
4.78168
4.78902
4.79624
4.80271
4.80861
4.81451
4.82003
4.82449
4.82958
4.83374
4.83787
4.84123
4.8424
4.84492
4.84734
4.84662
4.84601
4.8458
4.84504
4.84361
4.84125
4.83894
4.83561
4.83173
4.82666
4.82167
4.81558
4.80888
4.80089
4.79302
4.78386
4.77392
4.76318
4.7515
4.73891
4.72546
4.71108
4.69575
4.67877
4.66178
4.64257
4.62334
4.6024
4.5805
4.55743
4.53257
4.5075
4.48004
4.45245
4.42297
4.39234
4.36031
4.32693
4.29222
4.25613
4.21868
4.17993
4.13988
4.0985
4.05574
4.01166
3.96634
3.9198
3.87167
3.82282
3.77263
3.72134
3.66899
3.61555
3.56134
3.50612
3.45003
3.39322
3.33571
3.27762
3.2189
3.1597
3.1
3.04018
2.97987
2.91953
2.85909
2.79868
2.73831
2.67813
2.61816
2.55853
2.49909
2.44046
2.38206
2.32431
2.26713
2.21058
2.15467
2.09939
2.04561
1.99238
1.94018
1.88887
1.83853
1.78917
1.74086
1.69345
1.64733
1.60194
1.55802
1.51478
1.47289
1.43187
1.39204
1.35321
1.31543
1.27852
1.24286
1.2079
1.17432
1.14145
1.10967
1.07868
1.0488
1.01961
0.991587
0.964154
0.937792
0.912037
0.887371
0.863206
0.839982
0.817358
0.795619
0.774419
0.754033
0.734131
0.715063
0.696413
0.678595
0.661077
0.644342
0.627966
0.612278
0.596978
0.582273
0.567887
0.554102
0.540604
0.527688
0.515046
0.502916
0.491084
0.479706
0.468594
0.457924
0.447453
0.437436
0.427616
0.41823
0.40901
0.400174
0.391516
0.383213
0.375072
0.367257
0.359588
0.352225
0.345007
0.338084
0.331279
0.324745
0.318329
0.312154
0.306108
0.300278
0.294524
0.288976
0.283492
0.278244
0.273034
0.268038
0.263117
0.258385
0.253732
0.249252
0.244817
0.240575
0.236373
0.232292
0.228335
0.224287
0.219511
0.214131
0.209776
0.206181
0.20842
0.206085
0.204115
0.200748
0.198552
0.195388
0.192499
0.18742
0.182661
0.17923
0.176508
0.172382
0.170613
0.16783
0.170711
0.169831
0.168154
0.166187
0.164985
0.165057
0.163791
0.16179
0.160316
0.159641
0.159172
0.15821
0.156472
0.154582
0.152785
0.150913
0.149159
0.147531
0.145928
0.144383
0.142853
0.141369
0.139903
0.138481
0.137076
0.135718
0.134366
0.133063
0.131769
0.130529
0.129289
0.128091
0.126903
0.125729
0.124632
0.123434
0.122302
0.121242
0.120199
0.119183
0.118168
0.11718
0.116199
0.115246
0.114305
0.113393
0.112489
0.111616
0.110746
0.109915
0.109079
0.108276
0.107481
0.106692
0.105972
0.105162
0.1044
0.103699
0.10301
0.10234
0.101671
0.101016
0.100367
0.0997348
0.0991088
0.0985033
0.0978983
0.0973148
0.0967304
0.0961732
0.0956103
0.0950678
0.0945306
0.093988
0.0935093
0.0929385
0.0924089
0.0919263
0.0914555
0.0909956
0.0905335
0.0900792
0.0896282
0.0891854
0.088748
0.0883242
0.0878999
0.0874928
0.0870814
0.0866895
0.0862931
0.0859057
0.0855288
0.0851327
0.0848056
0.0843819
0.0839947
0.0836494
0.0833134
0.082984
0.0826528
0.0823247
0.0819982
0.081678
0.0813601
0.0810513
0.0807414
0.0804427
0.0801408
0.0798521
0.0795614
0.0792748
0.0790004
0.0787036
0.0784714
0.0781507
0.0778595
0.0776053
0.0773601
0.0771207
0.0768796
0.0766382
0.0763988
0.076162
0.0759275
0.075699
0.0754692
0.0752491
0.075025
0.0748121
0.0745979
0.0743836
0.0741835
0.0739583
0.0737939
0.0735483
0.0733269
0.073137
0.0729574
0.0727801
0.0726019
0.0724211
0.0722409
0.0720626
0.0718838
0.0717104
0.0715337
0.0713649
0.0711911
0.071026
0.0708598
0.0706907
0.0705367
0.0703551
0.0702312
0.0700313
0.0698512
0.0696996
0.0695572
0.0694176
0.0692759
0.0691324
0.0689879
0.0688461
0.0687021
0.0685643
0.0684228
0.0682882
0.0681506
0.068018
0.0678876
0.0677508
0.0676304
0.0674824
0.0673872
0.0672251
0.0670768
0.066956
0.0668446
0.0667357
0.0666262
0.0665165
0.0664059
0.0663013
0.0662009
0.0661149
0.0660329
0.065969
0.065912
0.065863
0.0658064
0.065728
0.0656512
0.0655418
0.0654719
0.0653394
0.065215
0.0651226
0.0650418
0.0649751
0.0649122
0.0648513
0.0647896
0.0647259
0.064654
0.0645804
0.0644988
0.0644185
0.0643319
0.0642465
0.0641608
0.0640669
0.0639858
0.063879
0.063816
0.0636965
0.0635833
0.0634956
0.0634144
0.0633361
0.0632547
0.0631718
0.0630868
0.0630044
0.0629197
0.0628398
0.0627569
0.0626798
0.0625999
0.0625235
0.0624497
0.0623694
0.0623034
0.0622144
0.0621669
0.0620697
0.0619766
0.0619087
0.0618473
0.0617896
0.0617295
0.0616686
0.0616056
0.0615452
0.0614829
0.0614237
0.0613623
0.061305
0.061246
0.0611867
0.0611329
0.0610656
0.0610141
0.0609392
0.0609015
0.0608145
0.0607315
0.0606654
0.0606084
0.060547
0.060489
0.0604195
0.0603488
0.0602726
0.0601878
0.0600988
0.0600152
0.0599234
0.0598128
0.0596969
0.0595906
0.0594724
0.0593642
0.0592337
0.0591465
0.0590078
0.0588876
0.0588019
0.0587302
0.0586725
0.0586207
0.0585771
0.0585381
0.0585079
0.0584786
0.0584545
0.058428
0.0584063
0.0583792
0.0583524
0.058325
0.0582897
0.0582611
0.0582121
0.058193
0.0581331
0.05807
0.0580219
0.057984
0.0579436
0.0579026
0.0578565
0.0578094
0.0577619
0.0577136
0.057665
0.0576167
0.0575688
0.0575245
0.0574729
0.0574343
0.0573789
0.0573446
0.0572836
0.0572601
0.0571979
0.0571377
0.05709
0.0570559
0.0570213
0.056987
0.0569492
0.0569088
0.0568716
0.056833
0.0567934
0.0567607
0.0567198
0.0566914
0.0566528
0.0566221
0.0565892
0.0565628
0.0565268
0.0565095
0.0564675
0.0564236
0.0564017
0.056382
0.0563697
0.0563567
0.0563467
0.05632
0.0563182
0.0563209
0.0563174
0.0563187
0.056324
0.0563145
0.0563326
0.0563393
0.0563526
0.0563687
0.0563787
0.0563932
0.0563717
0.0563551
0.0563837
0.0564276
0.0564716
0.0564837
0.0565048
0.0564811
0.0565173
0.0565399
0.0565484
0.0565348
0.0565128
0.0565343
0.0565416
0.0565366
0.0565495
0.0565672
0.0565417
0.0565519
0.0565356
0.0565217
0.0564935
0.0564486
0.0564
0.0563634
0.0563222
0.0562785
0.056214
0.0561345
0.056039
0.055934
0.0558107
0.0556692
0.0555142
0.0553493
0.0551683
0.0549658
0.0547567
0.0545387
0.0542595
0.0539689
0.0536703
0.0533412
0.052989
0.0525936
0.0521658
0.0516987
0.0512048
0.0506729
0.0501114
0.0495249
0.0488976
0.0482091
0.0475238
0.046737
0.0458783
0.0450203
0.0439997
0.0429663
0.0417616
0.0405753
0.0392185
0.0378848
0.0364955
0.0349916
0.0332851
0.0316779
0.0300673
0.0285313
0.0270557
0.0258513
0.0247587
0.0237718
0.0228276
0.0219027
0.0209086
0.0197834
0.0185393
0.0172381
0.0160166
0.0150257
0.0143712
0.0141052
0.014082
0.014224
0.0143498
0.0142918
0.0134136
0.0110826
0.00686761
0.0778948
0.117773
0.152102
0.1799
0.205296
0.235075
0.269873
0.309699
0.345856
0.384404
0.428271
0.470799