/*--------------------------------*- C++ -*----------------------------------*\
  =========                 |
  \\      /  F ield         | OpenFOAM: The Open Source CFD Toolbox
   \\    /   O peration     | Website:  https://openfoam.org
    \\  /    A nd           | Version:  9
     \\/     M anipulation  |
\*---------------------------------------------------------------------------*/
FoamFile
{
    format      ascii;
    class       volScalarField;
    location    "489";
    object      nut;
}
// * * * * * * * * * * * * * * * * * * * * * * * * * * * * * * * * * * * * * //

dimensions      [0 2 -1 0 0 0 0];

internalField   nonuniform List<scalar> 
203528
(
9.36768e-05
0.000168933
0.000242592
0.000313442
0.000637074
0.000652161
0.00073748
0.000774027
0.000891229
0.00097566
0.000995672
7.9684e-05
9.05998e-05
9.38563e-05
9.78027e-05
0.000101545
0.000105163
0.000108735
0.000112201
0.000115633
0.000118966
0.000122273
0.000125488
0.000128693
0.000131801
0.000134915
0.000137936
0.000140943
0.000143889
0.000146818
0.000149685
0.000152532
0.000155347
0.000158115
0.000160844
0.00016356
0.000166227
0.000168883
0.000171488
0.000174092
0.000176643
0.000179187
0.000181701
0.00018418
0.000186645
0.000189079
0.000191477
0.000193874
0.000196239
0.000198578
0.000200886
0.000203194
0.000205454
0.000207714
0.000209948
0.000212148
0.000214343
0.000216506
0.000218643
0.000220777
0.000222862
0.000224977
0.000227009
0.000229084
0.000231071
0.000233111
0.000235059
0.00023704
0.000238964
0.000240902
0.000242788
0.000244684
0.000246525
0.000248401
0.000250187
0.000252004
0.000253765
0.000255537
0.000257258
0.000259009
0.000260675
0.000262371
0.000264008
0.000265658
0.000267254
0.000268861
0.00027041
0.000271979
0.00027349
0.000275015
0.000276482
0.000277965
0.000279389
0.000280828
0.000282207
0.000283606
0.000284944
0.0002863
0.000287595
0.000288904
0.000290175
0.000291426
0.000292638
0.000293863
0.000295029
0.000296207
0.000297345
0.000298467
0.000299563
0.000300645
0.000301683
0.000302735
0.000303729
0.000304736
0.000305686
0.000306665
0.000307557
0.000308493
0.000309343
0.000310225
0.000311044
0.000311879
0.000312656
0.000313447
0.000314179
0.000314935
0.000315615
0.00031632
0.000316964
0.00031763
0.000318223
0.000318839
0.000319394
0.000319964
0.000320474
0.000320995
0.000321458
0.000321936
0.000322352
0.000322784
0.000323153
0.000323537
0.000323857
0.000324193
0.000324463
0.000324747
0.00032497
0.000325196
0.000325374
0.000325546
0.00032567
0.000325804
0.000325852
0.000325943
0.000325963
0.00032597
0.000325959
0.000325944
0.000325876
0.000325801
0.000325621
0.000325525
0.000325344
0.000325099
0.000324814
0.000324558
0.000324239
0.000323934
0.000323521
0.000323165
0.000322717
0.000322291
0.000321747
0.000321261
0.00032068
0.000320118
0.000319435
0.000318818
0.0003181
0.000317387
0.0003166
0.000315814
0.000314946
0.000314085
0.000313146
0.000312225
0.00031116
0.000310182
0.000309036
0.000307959
0.000306767
0.000305579
0.000304319
0.000302998
0.000301673
0.000300259
0.000298835
0.000297371
0.000295827
0.000294271
0.000292626
0.000290976
0.000289234
0.000287485
0.000285646
0.000283802
0.000281872
0.000279928
0.000277895
0.000275855
0.00027374
0.000271582
0.000269374
0.000267149
0.000264838
0.000262526
0.000260121
0.000257732
0.000255257
0.000252779
0.000250229
0.00024768
0.000245063
0.000242448
0.000239766
0.000237087
0.000234361
0.000231635
0.000228858
0.000226094
0.000223282
0.000220487
0.000217651
0.000214835
0.000211983
0.000209148
0.000206308
0.000203478
0.000200626
0.000197808
0.000194966
0.00019217
0.000189269
0.000187078
0.00018498
0.000182922
0.000180835
0.000178783
0.00017671
0.000174609
0.000172629
0.00017061
0.00016859
0.000166602
0.000164622
0.000162657
0.000160706
0.00015878
0.000156879
0.000154989
0.000153131
0.000151294
0.000149466
0.000147679
0.00014592
0.000144166
0.000142447
0.000140758
0.000139082
0.000137355
0.000135828
0.000134247
0.000132676
0.000131156
0.000129639
0.000128157
0.000126698
0.000125273
0.00012386
0.000122487
0.000121125
0.000119806
0.000118496
0.000117226
0.000115962
0.000114736
0.000113521
0.000112347
0.000111182
0.000109978
0.000108925
0.000107839
0.000106756
0.000105707
0.000104672
0.000103663
0.000102668
0.000101702
0.000100744
9.98187e-05
9.8894e-05
9.80051e-05
9.7122e-05
9.62671e-05
9.54206e-05
9.45982e-05
9.37855e-05
9.30014e-05
9.22192e-05
9.14124e-05
9.07131e-05
8.99888e-05
8.92699e-05
8.85723e-05
8.78829e-05
8.72146e-05
8.65471e-05
8.59044e-05
8.52651e-05
8.46471e-05
8.40317e-05
8.3435e-05
8.2839e-05
8.22633e-05
8.16823e-05
8.11257e-05
8.05704e-05
8.00261e-05
7.94953e-05
7.8938e-05
7.84616e-05
7.79612e-05
7.74426e-05
7.69589e-05
7.62586e-05
7.7028e-05
6.22269e-05
5.83105e-05
7.94197e-05
9.41498e-05
0.000498278
0.000514587
0.000515738
0.000518325
0.000506421
0.000375942
0.000313359
5.74729e-05
5.24179e-05
5.1595e-05
5.18563e-05
4.89951e-05
6.41944e-05
7.18762e-05
0.000373669
0.000378719
0.000401169
0.000369026
0.000339361
0.000333224
0.000343346
0.000332039
0.000316066
0.000310882
0.000308871
0.000308584
0.000304645
0.000300559
0.000296637
0.000291689
0.000287956
0.000284207
0.000280549
0.000276979
0.00027347
0.000270051
0.000266684
0.000263434
0.000260216
0.000257121
0.000254046
0.000251089
0.000248157
0.000245342
0.000242553
0.000239849
0.000237188
0.00023452
0.000232179
0.000228994
0.000226766
0.000224473
0.000222199
0.000219951
0.000217723
0.000215527
0.000213359
0.000211259
0.000209178
0.000207177
0.000205189
0.000203277
0.000201375
0.000199554
0.000197746
0.000195985
0.000194263
0.000192521
0.000191062
0.000188866
0.000187472
0.000186026
0.000184585
0.000183154
0.000181741
0.000180328
0.000178937
0.00017759
0.000176249
0.000174961
0.000173673
0.000172438
0.000171198
0.000170014
0.000168838
0.000167681
0.000166554
0.000165381
0.000164475
0.000162865
0.000161977
0.000161027
0.000160079
0.000159128
0.000158187
0.000157228
0.000156287
0.000155368
0.000154452
0.000153572
0.000152688
0.000151846
0.000150995
0.000150181
0.000149379
0.000148566
0.000147798
0.000146944
0.000146381
0.000145114
0.000144522
0.000143877
0.000143223
0.000142558
0.000141903
0.000141223
0.00014055
0.0001399
0.000139243
0.000138616
0.000137982
0.000137375
0.000136762
0.000136168
0.000135596
0.000134996
0.000134449
0.000133811
0.00013343
0.000132444
0.000132026
0.000131564
0.000131101
0.000130623
0.000130161
0.000129661
0.000129175
0.000128697
0.000128221
0.000127758
0.000127294
0.000126849
0.000126397
0.000125965
0.000125552
0.000125102
0.000124709
0.000124223
0.000123959
0.000123175
0.000122883
0.00012255
0.00012222
0.00012187
0.000121538
0.000121162
0.000120798
0.000120442
0.000120079
0.000119733
0.000119377
0.00011904
0.000118692
0.000118357
0.000118044
0.000117686
0.000117386
0.000116996
0.000116799
0.00011614
0.000115921
0.000115662
0.000115406
0.000115132
0.000114873
0.000114573
0.00011428
0.000113998
0.000113705
0.00011343
0.000113144
0.000112875
0.0001126
0.000112329
0.000112089
0.000111796
0.000111562
0.000111242
0.000111091
0.000110527
0.000110365
0.000110166
0.000109968
0.000109754
0.000109557
0.000109321
0.000109093
0.000108877
0.00010866
0.000108474
0.000108288
0.000108139
0.000108012
0.000107903
0.000107823
0.000107663
0.000107534
0.00010731
0.000107208
0.000106732
0.000106611
0.000106465
0.000106315
0.000106169
0.000106056
0.000105912
0.000105787
0.000105665
0.000105524
0.000105385
0.000105227
0.000105072
0.000104906
0.000104735
0.000104589
0.000104386
0.000104231
0.000104003
0.000103904
0.000103453
0.000103356
0.000103222
0.000103084
0.000102931
0.000102793
0.000102613
0.00010244
0.000102275
0.000102101
0.00010194
0.000101771
0.000101615
0.000101455
0.000101296
0.000101168
0.000100987
0.000100857
0.000100664
0.000100585
0.000100185
0.000100124
0.000100026
9.99237e-05
9.98082e-05
9.97106e-05
9.95734e-05
9.9443e-05
9.93208e-05
9.91911e-05
9.90721e-05
9.89448e-05
9.88297e-05
9.87109e-05
9.8587e-05
9.85024e-05
9.83492e-05
9.82486e-05
9.80888e-05
9.80267e-05
9.76592e-05
9.76201e-05
9.75299e-05
9.74415e-05
9.73209e-05
9.72321e-05
9.70838e-05
9.69464e-05
9.68033e-05
9.66441e-05
9.64725e-05
9.63068e-05
9.61419e-05
9.59423e-05
9.57149e-05
9.55257e-05
9.52786e-05
9.50687e-05
9.47924e-05
9.46499e-05
9.41511e-05
9.40197e-05
9.38752e-05
9.37286e-05
9.35986e-05
9.34949e-05
9.33771e-05
9.32752e-05
9.32015e-05
9.31282e-05
9.30718e-05
9.30077e-05
9.29634e-05
9.29054e-05
9.28486e-05
9.28153e-05
9.27343e-05
9.268e-05
9.2576e-05
9.25447e-05
9.22471e-05
9.22502e-05
9.21931e-05
9.21473e-05
9.20676e-05
9.20157e-05
9.19116e-05
9.1818e-05
9.17275e-05
9.16306e-05
9.15369e-05
9.14422e-05
9.13482e-05
9.1264e-05
9.11593e-05
9.11044e-05
9.09835e-05
9.09179e-05
9.0787e-05
9.0749e-05
9.04481e-05
9.04538e-05
9.03956e-05
9.03584e-05
9.0288e-05
9.02495e-05
9.0166e-05
9.00864e-05
9.00146e-05
8.99424e-05
8.98646e-05
8.98082e-05
8.97272e-05
8.96825e-05
8.95968e-05
8.95672e-05
8.94926e-05
8.94438e-05
8.937e-05
8.93422e-05
8.90749e-05
8.91106e-05
8.91127e-05
8.90971e-05
8.90749e-05
8.90513e-05
8.90276e-05
8.89816e-05
8.89795e-05
8.89783e-05
8.89673e-05
8.89594e-05
8.89737e-05
8.89512e-05
8.89739e-05
8.89918e-05
8.90079e-05
8.90301e-05
8.90139e-05
8.90269e-05
8.8841e-05
8.89173e-05
8.89578e-05
8.90499e-05
8.91313e-05
8.9157e-05
8.91507e-05
8.90904e-05
8.91123e-05
8.91256e-05
8.9114e-05
8.90801e-05
8.90251e-05
8.89944e-05
8.89648e-05
8.89137e-05
8.88605e-05
8.88215e-05
8.87453e-05
8.86497e-05
8.8389e-05
8.84028e-05
8.83224e-05
8.81651e-05
8.79893e-05
8.78275e-05
8.76294e-05
8.74271e-05
8.71989e-05
8.69217e-05
8.66118e-05
8.62778e-05
8.58915e-05
8.54663e-05
8.49971e-05
8.45176e-05
8.39575e-05
8.33596e-05
8.27468e-05
8.21263e-05
8.1139e-05
8.04781e-05
7.96735e-05
7.87683e-05
7.77995e-05
7.67404e-05
7.55805e-05
7.4334e-05
7.30292e-05
7.1631e-05
7.01693e-05
6.86428e-05
6.705e-05
6.53209e-05
6.36221e-05
6.16947e-05
5.96994e-05
5.77713e-05
5.54959e-05
5.33455e-05
5.07576e-05
4.86191e-05
4.6069e-05
4.37904e-05
4.14103e-05
3.90024e-05
3.63129e-05
3.40193e-05
3.17152e-05
2.96502e-05
2.77025e-05
2.627e-05
2.49268e-05
2.37563e-05
2.2603e-05
2.14793e-05
2.02201e-05
1.87735e-05
1.71809e-05
1.55494e-05
1.40482e-05
1.29551e-05
1.23071e-05
1.21403e-05
1.22433e-05
1.25548e-05
1.27502e-05
1.2652e-05
1.13605e-05
8.30852e-06
3.73342e-06
0.000395511
0.000578245
0.000702315
0.000805491
0.00136806
0.00139207
0.00153474
0.00188205
0.0019727
0.00205044
0.0019207
0.000757075
0.000862327
0.000884583
0.000912088
0.000938792
0.000964161
0.000989496
0.00101382
0.00103805
0.00106148
0.00108484
0.00110748
0.00113014
0.00115214
0.00117419
0.00119572
0.00121702
0.00123811
0.00125897
0.00127954
0.00129978
0.00132018
0.00133995
0.00135965
0.00137911
0.00139844
0.0014175
0.00143641
0.00145515
0.00147368
0.0014919
0.0015103
0.001528
0.00154604
0.0015635
0.00158089
0.00159802
0.00161534
0.00163203
0.00164874
0.00166523
0.00168156
0.0016976
0.00171382
0.00172931
0.00174517
0.00176041
0.00177571
0.00179068
0.00180546
0.00182037
0.00183474
0.00184925
0.00186322
0.00187744
0.00189109
0.00190469
0.00191813
0.00193139
0.00194451
0.00195736
0.00196999
0.00198277
0.00199496
0.00200708
0.00201908
0.00203082
0.00204242
0.00205407
0.00206518
0.00207622
0.00208711
0.00209776
0.00210828
0.00211858
0.00212867
0.00213859
0.00214839
0.00215796
0.00216737
0.00217659
0.00218565
0.00219448
0.00220317
0.00221168
0.00222004
0.00222821
0.00223623
0.00224401
0.00225198
0.00225933
0.0022667
0.00227391
0.00228096
0.00228779
0.00229477
0.00230118
0.00230788
0.0023141
0.00232033
0.00232639
0.0023324
0.00233817
0.00234391
0.00234966
0.00235506
0.00236058
0.0023658
0.00237097
0.00237611
0.0023811
0.00238609
0.00239092
0.00239575
0.00240056
0.00240519
0.00240975
0.00241434
0.00241888
0.00242331
0.00242769
0.00243211
0.00243644
0.0024408
0.00244503
0.00244932
0.00245354
0.00245782
0.00246202
0.00246629
0.00247048
0.00247473
0.00247894
0.00248317
0.00248726
0.00249142
0.00249549
0.00249973
0.0025038
0.00250806
0.00251224
0.0025163
0.0025205
0.00252516
0.002529
0.00253366
0.00253817
0.00254299
0.00254781
0.00255179
0.00255645
0.00256174
0.0025658
0.00256976
0.00257428
0.00257895
0.00258356
0.00258804
0.00259265
0.00259732
0.00260193
0.00260633
0.00261084
0.00261539
0.00261983
0.00262404
0.00262838
0.00263269
0.00263677
0.00264087
0.00264476
0.00264858
0.0026522
0.00265578
0.00265919
0.00266219
0.00266528
0.00266791
0.00267045
0.00267278
0.00267476
0.00267662
0.00267782
0.00267913
0.00267968
0.00268024
0.00268029
0.00268002
0.00267924
0.00267811
0.00267645
0.00267441
0.00267179
0.00266878
0.00266517
0.00266116
0.00265648
0.00265134
0.00264554
0.00263933
0.00263225
0.00262483
0.0026167
0.00260805
0.00259872
0.00258883
0.00257827
0.00256722
0.00255543
0.00254318
0.00253023
0.00251681
0.00250268
0.00248812
0.00247287
0.00245723
0.0024409
0.00242423
0.00240694
0.00238933
0.00237115
0.00235268
0.00233368
0.00231446
0.00229476
0.0022749
0.00225455
0.00223412
0.00221327
0.00219231
0.00217097
0.00214936
0.00211381
0.00207868
0.0020437
0.00200909
0.00197466
0.00194066
0.0019072
0.00187352
0.00184067
0.00180798
0.00177594
0.00174395
0.00171288
0.00168199
0.00165165
0.00162161
0.00159222
0.0015631
0.00153471
0.00150653
0.00147912
0.0014518
0.00142541
0.00139922
0.00137375
0.00134847
0.00132432
0.00129982
0.00127626
0.00125299
0.00123041
0.00120795
0.00118633
0.00116495
0.00114415
0.0011236
0.00110368
0.001084
0.00106496
0.00104612
0.00102791
0.0010097
0.000992321
0.000975042
0.000958351
0.000941819
0.000925983
0.000910051
0.000894733
0.000879591
0.000864935
0.000850371
0.000836412
0.000822591
0.000809158
0.00079589
0.000783062
0.000770327
0.000758064
0.000745904
0.000734168
0.000722439
0.000711261
0.000700135
0.000689404
0.000678711
0.000668487
0.000658218
0.00064833
0.000638567
0.000629099
0.000619649
0.000610636
0.000601633
0.000592901
0.000584255
0.000575879
0.00056754
0.000559452
0.000551388
0.000543618
0.000535749
0.000528288
0.00052083
0.000513606
0.000506415
0.000499504
0.000492538
0.000485899
0.000479052
0.000473286
0.000462556
0.000468223
0.000407284
0.000361248
0.000297555
0.000320798
0.000961151
0.00112107
0.00113413
0.00110859
0.00111011
0.00102122
0.000984561
0.000458571
0.00034897
0.000329849
0.000326615
0.000304947
0.000219925
0.000206318
0.000710619
0.00085445
0.000916568
0.000866211
0.000816014
0.000800307
0.000803247
0.000794799
0.000772751
0.000765372
0.000765119
0.000764795
0.000757243
0.000750215
0.000743063
0.000735589
0.000728611
0.000721791
0.000715033
0.000708467
0.000701895
0.000695646
0.000689396
0.000683318
0.000677274
0.000671436
0.000665591
0.000659961
0.000654341
0.000648941
0.000643421
0.00063827
0.000632952
0.000627937
0.000622876
0.000617646
0.000612816
0.000608062
0.000603319
0.000598668
0.000593962
0.000589497
0.00058501
0.000580641
0.0005763
0.000572105
0.00056792
0.000563876
0.00055983
0.000555961
0.000551961
0.000548276
0.000544449
0.000540885
0.000537281
0.000533525
0.000530112
0.000526765
0.000523403
0.000520121
0.000516787
0.000513629
0.000510466
0.000507379
0.000504301
0.000501335
0.000498355
0.000495486
0.000492596
0.00048985
0.000486971
0.000484352
0.000481589
0.000479025
0.000476468
0.00047361
0.000471189
0.000468767
0.000466329
0.000463945
0.000461494
0.000459183
0.000456861
0.000454581
0.000452313
0.000450127
0.000447929
0.000445828
0.000443688
0.000441671
0.000439526
0.000437581
0.000435537
0.000433586
0.000431807
0.000429419
0.000427695
0.000425921
0.000424098
0.000422315
0.000420469
0.000418735
0.000416982
0.000415273
0.000413556
0.000411908
0.00041024
0.000408646
0.000407018
0.000405485
0.000403851
0.000402371
0.000400834
0.000399322
0.000398064
0.000396143
0.000394842
0.000393516
0.000392146
0.000390813
0.000389422
0.000388112
0.000386797
0.000385501
0.000384206
0.000382957
0.000381695
0.000380498
0.000379262
0.000378122
0.000376881
0.000375762
0.000374621
0.000373449
0.000372584
0.000371063
0.000370074
0.000369084
0.000368061
0.000367059
0.000366006
0.000365015
0.000364013
0.000363031
0.00036203
0.00036108
0.000360099
0.00035918
0.000358213
0.000357332
0.000356356
0.000355475
0.000354593
0.000353641
0.000353014
0.000351762
0.000350964
0.000350182
0.000349366
0.000348577
0.000347732
0.000346946
0.000346144
0.000345364
0.000344558
0.000343808
0.000343021
0.000342295
0.00034153
0.000340831
0.000340061
0.000339356
0.000338668
0.000337894
0.000337435
0.000336417
0.00033577
0.000335161
0.000334521
0.00033391
0.000333251
0.000332655
0.000332044
0.000331472
0.000330909
0.000330443
0.000329976
0.000329631
0.000329295
0.00032904
0.000328678
0.000328288
0.000327876
0.00032733
0.000327028
0.000326221
0.000325695
0.000325258
0.000324772
0.000324398
0.000323987
0.000323652
0.000323321
0.000322983
0.000322585
0.000322203
0.00032176
0.000321349
0.00032088
0.000320456
0.000319953
0.000319492
0.00031904
0.000318497
0.000318223
0.000317485
0.000317011
0.000316593
0.000316127
0.0003157
0.000315213
0.000314778
0.000314319
0.000313884
0.000313419
0.000313004
0.000312553
0.000312158
0.000311722
0.000311346
0.000310908
0.000310518
0.000310151
0.0003097
0.000309501
0.000308907
0.000308531
0.000308222
0.000307865
0.000307545
0.000307183
0.00030687
0.000306537
0.000306227
0.000305886
0.000305589
0.000305256
0.000304975
0.000304653
0.000304375
0.000304055
0.00030372
0.000303447
0.00030308
0.000302931
0.000302414
0.000302089
0.000301797
0.000301476
0.000301138
0.0003008
0.00030044
0.000300081
0.000299698
0.000299252
0.000298811
0.000298371
0.000297922
0.000297351
0.000296792
0.000296206
0.000295637
0.000295062
0.000294434
0.000294053
0.000293222
0.000292729
0.000292347
0.000291945
0.00029165
0.000291329
0.000291113
0.000290906
0.000290766
0.000290606
0.0002905
0.000290358
0.00029027
0.000290123
0.000290023
0.000289866
0.000289705
0.000289555
0.000289326
0.000289266
0.00028892
0.000288694
0.000288493
0.000288301
0.000288063
0.000287834
0.00028759
0.000287352
0.000287123
0.000286862
0.000286628
0.000286368
0.000286146
0.000285905
0.000285665
0.000285453
0.000285169
0.000284992
0.000284673
0.00028459
0.000284228
0.000283993
0.000283782
0.000283601
0.000283387
0.000283193
0.000282972
0.000282748
0.000282556
0.000282332
0.000282128
0.000281945
0.000281731
0.000281586
0.00028136
0.000281196
0.000281012
0.00028087
0.000280659
0.000280557
0.000280284
0.000280096
0.000280051
0.000279867
0.000279776
0.0002796
0.000279529
0.00027935
0.000279366
0.000279342
0.0002793
0.000279253
0.000279281
0.000279173
0.000279268
0.000279233
0.000279311
0.000279382
0.000279293
0.000279336
0.000279298
0.000279225
0.000279429
0.000279627
0.00027987
0.000279792
0.000279914
0.000279715
0.000280002
0.000279995
0.000280158
0.000279994
0.000280031
0.000280123
0.000280161
0.000280115
0.000280257
0.000280368
0.000280399
0.000280347
0.00028045
0.000280532
0.000280518
0.000280338
0.000280214
0.000280104
0.000280062
0.000279992
0.000279866
0.000279644
0.000279399
0.000279113
0.000278764
0.000278328
0.000277886
0.000277369
0.000276847
0.000276218
0.000275688
0.000274991
0.00027409
0.000273304
0.000272442
0.000271444
0.000270414
0.0002692
0.000267953
0.000266565
0.000265146
0.000263633
0.000262116
0.000260618
0.00025907
0.000257399
0.000255942
0.000254027
0.000252247
0.0002507
0.000248461
0.000246547
0.000243967
0.000242043
0.000239368
0.000237327
0.000234933
0.000231813
0.000227568
0.000224017
0.00021992
0.000215891
0.000211649
0.000208639
0.000205405
0.000202252
0.000198712
0.000194792
0.000189973
0.000183838
0.000176454
0.000168122
0.000159816
0.000152726
0.000147656
0.000145954
0.000146627
0.00014903
0.000151185
0.000151992
0.000145586
0.000125563
8.23733e-05
0.000779335
0.00110446
0.00128556
0.00141346
0.00190853
0.00196057
0.00209123
0.00239896
0.00254002
0.00264392
0.00267841
0.0017994
0.00196411
0.00202203
0.00208709
0.00215051
0.0022115
0.00227194
0.00233045
0.00238839
0.00244479
0.00250069
0.0025552
0.00260944
0.00266245
0.00271528
0.00276707
0.00281827
0.0028689
0.00291903
0.00296842
0.00301719
0.00306597
0.00311364
0.0031609
0.00320773
0.00325411
0.00329996
0.00334538
0.00339047
0.00343496
0.0034789
0.00352292
0.00356579
0.00360892
0.00365116
0.00369297
0.00373437
0.00377587
0.00381632
0.00385651
0.00389637
0.00393572
0.0039746
0.00401352
0.00405128
0.00408935
0.00412648
0.00416337
0.00419975
0.00423558
0.00427164
0.00430664
0.00434175
0.00437586
0.00441026
0.0044436
0.00447673
0.00450948
0.00454186
0.00457384
0.00460531
0.00463621
0.00466735
0.00469733
0.00472709
0.00475649
0.00478542
0.00481396
0.00484251
0.00486997
0.00489723
0.00492409
0.00495049
0.00497647
0.00500206
0.00502706
0.00505178
0.0050761
0.00510001
0.00512342
0.00514649
0.00516908
0.00519128
0.00521301
0.00523445
0.0052554
0.00527603
0.00529621
0.00531598
0.00533585
0.00535473
0.0053733
0.0053917
0.00540959
0.00542712
0.00544469
0.00546137
0.00547822
0.00549439
0.00551024
0.00552593
0.00554128
0.00555627
0.00557103
0.00558582
0.00559985
0.00561404
0.00562761
0.00564106
0.00565434
0.00566738
0.00568024
0.0056929
0.00570537
0.00571786
0.00572986
0.00574177
0.00575361
0.00576541
0.00577686
0.00578828
0.00579963
0.00581087
0.00582199
0.00583298
0.00584389
0.00585479
0.00586561
0.0058764
0.00588713
0.0058978
0.0059084
0.00591901
0.00592944
0.00593978
0.00595011
0.00596034
0.0059707
0.00598088
0.00599117
0.00600145
0.00601114
0.00602121
0.00603225
0.00604136
0.00605215
0.00606321
0.00607427
0.00608604
0.00609522
0.00610578
0.00611837
0.00612821
0.00613622
0.00614657
0.00615689
0.00616722
0.00617703
0.00618709
0.00619721
0.00620721
0.00621656
0.00622606
0.0062356
0.00624493
0.00625351
0.00626227
0.00627096
0.0062791
0.00628703
0.00629461
0.00630175
0.00630849
0.0063149
0.00632105
0.00632606
0.00633112
0.0063352
0.00633879
0.00634193
0.00634421
0.00634602
0.0063465
0.00634669
0.0063456
0.00634384
0.00634134
0.0063377
0.00633305
0.00632731
0.00632047
0.00631249
0.00630328
0.00629292
0.00628131
0.00626849
0.00625431
0.00623877
0.00622182
0.00620367
0.00618377
0.00616262
0.0061401
0.00611613
0.00609071
0.00606379
0.00603546
0.00600579
0.00597458
0.00594208
0.00590815
0.00587285
0.00583618
0.00579825
0.00575891
0.00571839
0.00567658
0.00563369
0.00558963
0.0055446
0.00549846
0.00545147
0.00540347
0.00535479
0.00530521
0.00525497
0.00520403
0.00515262
0.0051005
0.00504791
0.00499455
0.00493963
0.00486118
0.00478332
0.00470584
0.0046289
0.00455245
0.00447671
0.00440175
0.00432695
0.00425367
0.00418058
0.00410894
0.00403799
0.00396786
0.003898
0.00383055
0.0037629
0.00369693
0.0036313
0.00356745
0.00350391
0.00344176
0.00338106
0.00332112
0.00326187
0.0032044
0.00314719
0.00309198
0.00303696
0.00298365
0.00293088
0.00287969
0.00282928
0.00277986
0.00273089
0.00268405
0.00263725
0.00259198
0.00254715
0.00250386
0.0024609
0.00241906
0.00237828
0.0023383
0.00229878
0.0022607
0.00222283
0.0021863
0.00215016
0.00211509
0.00208036
0.00204678
0.00201378
0.00198146
0.00194945
0.00191887
0.00188831
0.0018588
0.00182945
0.00180123
0.00177318
0.00174587
0.00171936
0.0016933
0.00166753
0.00164273
0.00161791
0.00159405
0.00157046
0.00154748
0.00152476
0.00150272
0.00148105
0.00145981
0.00143862
0.00141846
0.00139825
0.00137867
0.00135914
0.0013402
0.00132127
0.00130282
0.00128477
0.00126702
0.00124942
0.00123244
0.0012154
0.00119902
0.00118277
0.00116696
0.00115085
0.00113686
0.00111419
0.00111695
0.00104975
0.000978857
0.00079042
0.0007691
0.0015119
0.00170326
0.00171725
0.00168206
0.00168444
0.00158974
0.00157737
0.00111747
0.000943761
0.000890933
0.000883016
0.000839448
0.000625227
0.000517798
0.00116572
0.00137938
0.00143884
0.00139442
0.00135096
0.0013422
0.00134125
0.00132936
0.00130506
0.00130039
0.00130433
0.00130435
0.00129269
0.00128188
0.00127026
0.00125943
0.0012484
0.00123732
0.00122621
0.00121544
0.00120484
0.0011944
0.00118397
0.00117404
0.001164
0.00115428
0.0011445
0.00113507
0.00112562
0.00111639
0.00110731
0.00109844
0.00108927
0.00108089
0.00107179
0.00106359
0.00105527
0.00104685
0.00103843
0.00103021
0.00102207
0.00101406
0.00100602
0.000998399
0.000990704
0.00098324
0.000975781
0.000968556
0.000961304
0.000954252
0.000947275
0.000940523
0.000933511
0.000927196
0.000920291
0.000914145
0.000907935
0.000901633
0.000895304
0.000889161
0.000883084
0.000877089
0.000871112
0.000865446
0.000859706
0.000854158
0.000848582
0.000843194
0.000837769
0.000832507
0.000827277
0.000822251
0.000816956
0.00081222
0.000807065
0.00080227
0.000797676
0.00079291
0.000788122
0.000783472
0.000778842
0.000774282
0.000769716
0.000765389
0.000761015
0.000756784
0.000752538
0.000748466
0.00074432
0.000740323
0.000736327
0.000732479
0.000728442
0.000724754
0.000720994
0.00071698
0.000713585
0.000709975
0.000706295
0.000702726
0.000699169
0.000695659
0.000692134
0.000688827
0.000685455
0.000682197
0.000678915
0.000675768
0.00067256
0.000669464
0.000666387
0.000663413
0.000660329
0.000657433
0.000654686
0.000651422
0.000648866
0.000646122
0.000643312
0.000640607
0.000637902
0.000635221
0.000632536
0.000630016
0.000627448
0.000624965
0.000622465
0.000620087
0.000617641
0.000615306
0.000612978
0.000610716
0.000608409
0.000606165
0.000604224
0.000601635
0.000599734
0.000597666
0.000595547
0.000593501
0.000591458
0.000589419
0.000587365
0.000585459
0.000583482
0.000581589
0.000579652
0.000577827
0.000575919
0.00057411
0.000572299
0.000570524
0.000568743
0.000566932
0.000565495
0.00056338
0.000561885
0.000560249
0.000558562
0.000556951
0.000555324
0.000553711
0.000552069
0.000550572
0.000548993
0.000547508
0.000545968
0.000544538
0.000543039
0.000541608
0.000540203
0.000538792
0.000537412
0.000535952
0.000534878
0.0005332
0.000532019
0.000530745
0.000529424
0.000528178
0.000526927
0.000525706
0.000524457
0.000523377
0.000522287
0.000521367
0.000520467
0.000519791
0.000519136
0.000518585
0.000517969
0.000517185
0.00051635
0.000515342
0.000514613
0.000513333
0.000512415
0.000511498
0.000510496
0.000509742
0.000508972
0.00050828
0.000507584
0.000506961
0.000506197
0.000505452
0.000504607
0.000503813
0.000502919
0.000502054
0.000501183
0.000500277
0.000499388
0.000498391
0.000497734
0.000496575
0.00049575
0.000494877
0.000493933
0.000493068
0.000492167
0.000491286
0.000490358
0.00048956
0.000488679
0.00048788
0.000487027
0.00048627
0.000485446
0.000484679
0.000483934
0.00048317
0.000482451
0.000481627
0.000481151
0.000480242
0.000479606
0.000478952
0.000478211
0.000477577
0.00047692
0.000476285
0.000475606
0.000475051
0.000474415
0.000473849
0.000473231
0.000472699
0.000472099
0.000471531
0.000471005
0.000470371
0.000469836
0.000469174
0.000468822
0.000468051
0.000467512
0.000466909
0.000466242
0.0004656
0.000464987
0.00046429
0.000463571
0.00046289
0.000462064
0.000461247
0.000460447
0.000459606
0.000458548
0.00045747
0.000456475
0.000455403
0.000454321
0.000453198
0.000452345
0.000451058
0.000450211
0.000449437
0.000448661
0.000448075
0.000447514
0.000447076
0.000446662
0.000446436
0.000446153
0.000445957
0.000445711
0.000445546
0.00044529
0.000445063
0.000444839
0.000444539
0.000444257
0.000443857
0.000443717
0.000443236
0.000442877
0.000442451
0.000442022
0.000441585
0.000441157
0.000440691
0.000440204
0.000439806
0.000439327
0.000438888
0.000438408
0.000437992
0.000437544
0.000437052
0.000436707
0.000436169
0.000435827
0.000435249
0.000435054
0.000434512
0.00043412
0.000433646
0.000433242
0.000432816
0.000432439
0.000431993
0.000431512
0.000431162
0.000430725
0.00043032
0.000429954
0.000429535
0.000429238
0.00042876
0.000428486
0.000428102
0.000427796
0.000427389
0.000427166
0.00042675
0.000426432
0.00042621
0.000425823
0.000425534
0.000425265
0.000425009
0.00042463
0.000424588
0.000424496
0.000424386
0.000424292
0.000424298
0.000424073
0.000424186
0.000424194
0.000424279
0.000424384
0.000424306
0.000424462
0.000424408
0.000424414
0.0004247
0.000424999
0.00042547
0.000425457
0.00042576
0.000425447
0.000425999
0.000426072
0.000426425
0.000426269
0.000426367
0.000426707
0.000426783
0.00042701
0.000427392
0.000427902
0.000428092
0.000428427
0.000428908
0.000429364
0.000429587
0.000429542
0.00042965
0.000429904
0.000430221
0.000430534
0.000430829
0.00043099
0.000431139
0.000431256
0.000431324
0.000431282
0.000431236
0.000431238
0.000431211
0.000431068
0.000431181
0.000431031
0.000430857
0.000430716
0.000430532
0.000430253
0.000430031
0.000429688
0.000429344
0.000428911
0.000428657
0.000428405
0.000428326
0.000428551
0.000428886
0.000429326
0.000430354
0.000431132
0.000432246
0.000434069
0.000435307
0.000437281
0.000438714
0.000441324
0.000443303
0.000446555
0.000449818
0.000451613
0.000451391
0.000452065
0.000451915
0.000451221
0.00044968
0.000449562
0.000448528
0.00044669
0.000443387
0.000438735
0.00043159
0.000421419
0.000408219
0.000392244
0.000375133
0.000359462
0.000346637
0.000341082
0.000341436
0.000346625
0.000352518
0.00035642
0.000345591
0.000305394
0.000207323
0.00118347
0.00167181
0.00191369
0.00206508
0.00241716
0.00250746
0.00266338
0.00295389
0.00311958
0.00325645
0.00342063
0.00294197
0.00313088
0.00323187
0.00333946
0.00344443
0.00354613
0.0036465
0.00374415
0.00384062
0.00393481
0.00402796
0.00411901
0.00420945
0.00429811
0.00438616
0.00447281
0.00455826
0.00464295
0.0047266
0.00480926
0.00489073
0.0049722
0.00505192
0.00513099
0.00520922
0.00528683
0.00536345
0.00543953
0.00551487
0.00558942
0.00566295
0.00573661
0.0058085
0.00588069
0.00595148
0.00602166
0.00609106
0.00616062
0.00622855
0.00629609
0.00636295
0.00642919
0.00649449
0.00655991
0.00662353
0.00668755
0.00675014
0.00681236
0.00687366
0.00693426
0.00699488
0.00705426
0.00711334
0.00717134
0.00722922
0.00728597
0.00734196
0.00739766
0.0074525
0.00750693
0.00756033
0.00761311
0.00766582
0.00771719
0.00776778
0.00781813
0.00786744
0.00791643
0.00796501
0.00801233
0.00805892
0.00810521
0.00815045
0.00819528
0.0082392
0.00828247
0.00832499
0.00836716
0.00840836
0.00844907
0.00848892
0.00852828
0.00856671
0.00860469
0.00864186
0.00867859
0.00871444
0.0087499
0.00878441
0.0088192
0.0088523
0.00888507
0.00891729
0.00894897
0.00897977
0.00901078
0.00904026
0.00907007
0.00909865
0.00912688
0.00915457
0.00918197
0.00920849
0.00923489
0.00926093
0.00928619
0.00931117
0.00933563
0.00935943
0.00938328
0.00940637
0.00942946
0.00945187
0.00947425
0.00949625
0.00951782
0.00953883
0.00956002
0.00958074
0.00960124
0.00962126
0.00964145
0.00966106