/*--------------------------------*- C++ -*----------------------------------*\
  =========                 |
  \\      /  F ield         | OpenFOAM: The Open Source CFD Toolbox
   \\    /   O peration     | Website:  https://openfoam.org
    \\  /    A nd           | Version:  9
     \\/     M anipulation  |
\*---------------------------------------------------------------------------*/
FoamFile
{
    format      ascii;
    class       volScalarField;
    location    "489";
    object      p;
}
// * * * * * * * * * * * * * * * * * * * * * * * * * * * * * * * * * * * * * //

dimensions      [0 2 -2 0 0 0 0];

internalField   nonuniform List<scalar> 
203528
(
607.52
607.5
607.473
607.439
607.406
607.367
607.319
607.264
607.202
607.133
607.053
606.964
606.865
606.761
606.649
606.529
606.404
606.272
606.136
605.993
605.848
605.696
605.543
605.383
605.223
605.058
604.891
604.721
604.55
604.376
604.2
604.024
603.845
603.665
603.484
603.302
603.119
602.936
602.752
602.567
602.381
602.197
602.009
601.825
601.637
601.452
601.265
601.081
600.893
600.708
600.523
600.339
600.153
599.972
599.786
599.607
599.423
599.243
599.063
598.884
598.709
598.53
598.358
598.181
598.012
597.839
597.671
597.504
597.339
597.175
597.014
596.853
596.699
596.541
596.389
596.239
596.092
595.947
595.808
595.666
595.532
595.399
595.27
595.144
595.022
594.904
594.79
594.68
594.573
594.471
594.374
594.281
594.193
594.11
594.032
593.959
593.892
593.83
593.773
593.726
593.679
593.643
593.613
593.589
593.57
593.563
593.557
593.566
593.576
593.599
593.628
593.667
593.713
593.769
593.836
593.908
593.996
594.089
594.196
594.311
594.438
594.576
594.726
594.887
595.062
595.247
595.446
595.657
595.882
596.119
596.371
596.637
596.917
597.212
597.52
597.845
598.184
598.539
598.91
599.297
599.7
600.119
600.555
601.008
601.477
601.964
602.466
602.989
603.524
604.082
604.655
605.243
605.854
606.479
607.119
607.783
608.459
609.154
609.865
610.594
611.34
612.102
612.881
613.675
614.485
615.311
616.153
617.003
617.877
618.758
619.657
620.56
621.486
622.416
623.363
624.311
625.28
626.251
627.232
628.221
629.216
630.217
631.224
632.234
633.251
634.261
635.289
636.299
637.325
638.339
639.355
640.369
641.372
642.383
643.372
644.369
645.347
646.321
647.283
648.234
649.174
650.1
651.013
651.911
652.794
653.66
654.509
655.339
656.152
656.946
657.717
658.471
659.202
659.911
660.6
661.265
661.909
662.529
663.127
663.702
664.254
664.783
665.288
665.772
666.232
666.671
667.086
667.482
667.855
668.207
668.54
668.852
669.146
669.421
669.677
669.918
670.139
670.347
670.538
670.715
670.878
671.027
671.165
671.289
671.404
671.507
671.601
671.686
671.761
671.829
671.889
671.943
671.99
672.031
672.066
672.097
672.123
672.146
672.164
672.18
672.19
672.2
672.207
672.212
672.213
672.215
672.214
672.213
672.21
672.206
672.201
672.196
672.19
672.184
672.178
672.171
672.164
672.158
672.151
672.144
672.137
672.131
672.125
672.119
672.113
672.107
672.102
672.097
672.092
672.088
672.084
672.08
672.077
672.074
672.071
672.068
672.066
672.064
672.063
672.062
672.061
672.06
672.059
672.059
672.059
672.06
672.06
672.061
672.062
672.063
672.064
672.066
672.068
672.069
672.071
672.074
672.076
672.078
672.081
672.083
672.086
672.089
672.091
672.094
672.097
672.1
672.104
672.107
672.11
672.113
672.117
672.12
672.124
672.127
672.132
672.134
672.135
672.136
672.133
672.139
672.146
672.149
672.155
672.159
672.173
672.178
672.184
672.182
672.187
672.191
672.192
672.185
672.176
672.18
672.19
672.197
672.203
672.204
672.205
672.212
672.219
672.222
672.226
672.231
672.235
672.237
672.238
672.24
672.242
672.245
672.248
672.25
672.252
672.254
672.257
672.259
672.261
672.263
672.266
672.268
672.27
672.272
672.274
672.276
672.278
672.28
672.282
672.284
672.286
672.288
672.29
672.292
672.294
672.296
672.297
672.299
672.301
672.302
672.304
672.306
672.307
672.309
672.31
672.312
672.313
672.315
672.316
672.318
672.319
672.32
672.322
672.323
672.324
672.326
672.327
672.328
672.329
672.33
672.332
672.333
672.334
672.335
672.336
672.337
672.338
672.339
672.34
672.341
672.342
672.343
672.344
672.345
672.346
672.347
672.347
672.348
672.349
672.35
672.351
672.351
672.352
672.353
672.354
672.354
672.355
672.356
672.356
672.357
672.357
672.358
672.359
672.36
672.36
672.361
672.361
672.362
672.362
672.363
672.363
672.364
672.364
672.365
672.365
672.366
672.366
672.367
672.367
672.367
672.368
672.368
672.369
672.369
672.369
672.37
672.37
672.371
672.371
672.371
672.372
672.372
672.372
672.372
672.373
672.373
672.373
672.374
672.374
672.374
672.374
672.375
672.375
672.375
672.375
672.376
672.376
672.376
672.376
672.376
672.377
672.377
672.377
672.377
672.377
672.377
672.378
672.378
672.378
672.378
672.378
672.378
672.378
672.379
672.379
672.379
672.379
672.379
672.379
672.379
672.379
672.379
672.379
672.379
672.379
672.38
672.38
672.38
672.38
672.38
672.38
672.38
672.38
672.38
672.38
672.38
672.38
672.38
672.38
672.38
672.38
672.38
672.38
672.38
672.38
672.38
672.38
672.38
672.38
672.38
672.38
672.38
672.38
672.38
672.38
672.38
672.38
672.38
672.38
672.38
672.38
672.38
672.38
672.38
672.38
672.38
672.379
672.379
672.379
672.379
672.379
672.379
672.379
672.379
672.379
672.379
672.379
672.379
672.379
672.379
672.378
672.378
672.378
672.378
672.378
672.378
672.378
672.378
672.377
672.377
672.377
672.377
672.377
672.377
672.377
672.377
672.377
672.377
672.376
672.376
672.376
672.376
672.376
672.376
672.376
672.376
672.375
672.375
672.375
672.375
672.375
672.375
672.375
672.375
672.375
672.375
672.374
672.374
672.374
672.374
672.374
672.374
672.374
672.374
672.373
672.373
672.373
672.373
672.373
672.373
672.372
672.372
672.372
672.372
672.371
672.371
672.371
672.371
672.371
672.371
672.37
672.37
672.37
672.37
672.37
672.37
672.37
672.37
672.37
672.37
672.37
672.37
672.37
672.37
672.369
672.37
672.369
672.369
672.369
672.369
672.369
672.369
672.369
672.369
672.369
672.369
672.369
672.369
672.369
672.369
672.369
672.369
672.369
672.369
672.369
672.37
672.37
672.37
672.37
672.37
672.37
672.37
672.371
672.371
672.371
672.372
672.372
672.372
672.372
672.373
672.373
672.374
672.374
672.375
672.376
672.376
672.377
672.378
672.379
672.379
672.38
672.381
672.382
672.384
672.385
672.386
672.388
672.389
672.391
672.393
672.395
672.397
672.4
672.402
672.405
672.408
672.411
672.415
672.419
672.423
672.427
672.432
672.437
672.442
672.448
672.454
672.461
672.468
672.475
672.483
672.492
672.501
672.511
672.522
672.533
672.545
672.558
672.571
672.586
672.601
672.618
672.635
672.653
672.673
672.693
672.715
672.738
672.763
672.788
672.815
672.844
672.874
672.905
672.939
672.973
673.01
673.048
673.087
673.129
673.172
673.216
673.262
673.31
673.359
673.409
673.459
673.511
673.563
673.615
673.667
673.718
673.768
673.816
673.862
673.905
673.946
673.983
674.016
674.046
674.072
674.095
674.114
674.131
674.145
674.157
674.168
674.176
674.183
674.189
674.194
674.198
674.202
674.205
674.208
674.211
674.217
674.223
674.231
674.239
674.245
674.247
674.244
607.52
607.498
607.472
607.438
607.405
607.366
607.319
607.263
607.2
607.13
607.052
606.963
606.862
606.758
606.645
606.525
606.4
606.268
606.132
605.988
605.843
605.691
605.537
605.377
605.217
605.052
604.885
604.715
604.544
604.37
604.194
604.018
603.838
603.659
603.478
603.296
603.113
602.93
602.745
602.561
602.375
602.191
602.003
601.819
601.631
601.446
601.259
601.075
600.887
600.703
600.517
600.333
600.148
599.966
599.78
599.601
599.417
599.238
599.058
598.879
598.704
598.524
598.353
598.176
598.007
597.834
597.667
597.499
597.335
597.171
597.01
596.849
596.695
596.537
596.386
596.236
596.089
595.944
595.805
595.663
595.529
595.397
595.268
595.142
595.021
594.902
594.789
594.679
594.573
594.47
594.373
594.28
594.193
594.11
594.033
593.96
593.893
593.831
593.774
593.728
593.681
593.646
593.615
593.591
593.573
593.566
593.561
593.57
593.581
593.603
593.633
593.672
593.719
593.775
593.842
593.915
594.003
594.096
594.203
594.319
594.446
594.585
594.735
594.897
595.072
595.257
595.456
595.668
595.894
596.131
596.383
596.649
596.93
597.225
597.535
597.859
598.199
598.555
598.926
599.313
599.717
600.137
600.573
601.026
601.496
601.983
602.485
603.009
603.545
604.103
604.676
605.265
605.876
606.502
607.142
607.806
608.482
609.178
609.889
610.619
611.364
612.127
612.906
613.7
614.511
615.336
616.179
617.029
617.903
618.784
619.683
620.586
621.512
622.442
623.389
624.337
625.307
626.277
627.258
628.246
629.242
630.243
631.249
632.259
633.276
634.285
635.312
636.322
637.348
638.362
639.377
640.391
641.393
642.403
643.393
644.388
645.366
646.339
647.3
648.251
649.19
650.116
651.028
651.926
652.808
653.673
654.521
655.351
656.163
656.956
657.726
658.48
659.21
659.919
660.607
661.271
661.915
662.534
663.132
663.706
664.257
664.786
665.29
665.773
666.233
666.672
667.087
667.481
667.854
668.207
668.539
668.851
669.144
669.419
669.675
669.916
670.137
670.344
670.535
670.712
670.875
671.024
671.162
671.286
671.401
671.504
671.598
671.683
671.758
671.826
671.887
671.94
671.987
672.028
672.064
672.095
672.121
672.144
672.161
672.177
672.188
672.198
672.205
672.21
672.212
672.214
672.212
672.211
672.208
672.204
672.2
672.195
672.189
672.183
672.177
672.17
672.163
672.157
672.15
672.143
672.137
672.13
672.124
672.118
672.112
672.106
672.101
672.096
672.091
672.087
672.083
672.08
672.076
672.073
672.07
672.068
672.066
672.064
672.063
672.061
672.06
672.06
672.059
672.059
672.059
672.06
672.06
672.061
672.062
672.063
672.064
672.066
672.068
672.069
672.071
672.073
672.076
672.078
672.081
672.083
672.086
672.089
672.091
672.094
672.097
672.101
672.104
672.107
672.11
672.113
672.117
672.12
672.124
672.128
672.132
672.136
672.137
672.137
672.134
672.139
672.145
672.149
672.155
672.159
672.172
672.178
672.184
672.183
672.188
672.191
672.192
672.186
672.178
672.18
672.189
672.198
672.202
672.204
672.206
672.212
672.219
672.222
672.227
672.231
672.235
672.237
672.238
672.24
672.242
672.245
672.247
672.25
672.252
672.254
672.256
672.259
672.261
672.263
672.266
672.268
672.27
672.272
672.274
672.276
672.278
672.28
672.282
672.284
672.286
672.288
672.29
672.292
672.294
672.296
672.297
672.299
672.301
672.302
672.304
672.306
672.307
672.309
672.31
672.312
672.313
672.315
672.316
672.318
672.319
672.32
672.322
672.323
672.324
672.326
672.327
672.328
672.329
672.33
672.331
672.333
672.334
672.335
672.336
672.337
672.338
672.339
672.34
672.341
672.342
672.343
672.344
672.345
672.346
672.347
672.347
672.348
672.349
672.35
672.351
672.351
672.352
672.353
672.354
672.354
672.355
672.356
672.356
672.357
672.357
672.358
672.359
672.36
672.36
672.361
672.361
672.362
672.362
672.363
672.363
672.364
672.364
672.365
672.365
672.366
672.366
672.367
672.367
672.367
672.368
672.368
672.369
672.369
672.369
672.37
672.37
672.371
672.371
672.371
672.372
672.372
672.372
672.372
672.373
672.373
672.373
672.374
672.374
672.374
672.374
672.375
672.375
672.375
672.375
672.376
672.376
672.376
672.376
672.376
672.377
672.377
672.377
672.377
672.377
672.377
672.378
672.378
672.378
672.378
672.378
672.378
672.378
672.379
672.379
672.379
672.379
672.379
672.379
672.379
672.379
672.379
672.379
672.379
672.379
672.38
672.38
672.38
672.38
672.38
672.38
672.38
672.38
672.38
672.38
672.38
672.38
672.38
672.38
672.38
672.38
672.38
672.38
672.38
672.38
672.38
672.38
672.38
672.38
672.38
672.38
672.38
672.38
672.38
672.38
672.38
672.38
672.38
672.38
672.38
672.38
672.38
672.38
672.38
672.38
672.38
672.379
672.379
672.379
672.379
672.379
672.379
672.379
672.379
672.379
672.379
672.379
672.379
672.379
672.379
672.378
672.378
672.378
672.378
672.378
672.378
672.378
672.378
672.378
672.377
672.377
672.377
672.377
672.377
672.377
672.377
672.377
672.377
672.376
672.376
672.376
672.376
672.376
672.376
672.376
672.376
672.375
672.375
672.375
672.375
672.375
672.375
672.375
672.375
672.375
672.375
672.374
672.374
672.374
672.374
672.374
672.374
672.374
672.374
672.373
672.373
672.373
672.373
672.373
672.373
672.372
672.372
672.372
672.372
672.372
672.371
672.371
672.371
672.371
672.371
672.371
672.37
672.37
672.37
672.37
672.37
672.37
672.37
672.37
672.37
672.37
672.37
672.37
672.37
672.369
672.37
672.369
672.369
672.369
672.369
672.369
672.369
672.369
672.369
672.369
672.369
672.369
672.369
672.369
672.369
672.369
672.369
672.369
672.369
672.369
672.37
672.37
672.37
672.37
672.37
672.37
672.37
672.371
672.371
672.371
672.372
672.372
672.372
672.372
672.373
672.373
672.374
672.374
672.375
672.375
672.376
672.377
672.378
672.378
672.379
672.38
672.381
672.382
672.384
672.385
672.386
672.388
672.389
672.391
672.393
672.395
672.397
672.4
672.402
672.405
672.408
672.411
672.415
672.418
672.422
672.427
672.431
672.436
672.442
672.447
672.454
672.46
672.467
672.475
672.483
672.492
672.501
672.511
672.521
672.532
672.545
672.557
672.571
672.585
672.601
672.617
672.634
672.652
672.672
672.692
672.714
672.737
672.761
672.787
672.814
672.842
672.872
672.904
672.937
672.972
673.008
673.046
673.085
673.127
673.169
673.214
673.26
673.307
673.356
673.406
673.457
673.509
673.56
673.613
673.665
673.715
673.766
673.813
673.86
673.903
673.944
673.981
674.015
674.045
674.071
674.094
674.114
674.13
674.145
674.157
674.167
674.176
674.183
674.189
674.194
674.198
674.202
674.204
674.208
674.211
674.216
674.223
674.23
674.238
674.245
674.247
674.244
607.519
607.496
607.47
607.437
607.405
607.366
607.319
607.262
607.2
607.13
607.053
606.962
606.861
606.757
606.644
606.524
606.398
606.266
606.129
605.986
605.84
605.688
605.534
605.374
605.214
605.049
604.882
604.712
604.54
604.367
604.19
604.015
603.835
603.655
603.474
603.293
603.11
602.926
602.742
602.557
602.371
602.188
601.999
601.816
601.628
601.443
601.256
601.072
600.884
600.7
600.514
600.33
600.145
599.964
599.778
599.599
599.415
599.236
599.056
598.877
598.702
598.523
598.351
598.174
598.006
597.833
597.666
597.499
597.334
597.17
597.009
596.849
596.695
596.537
596.386
596.236
596.09
595.945
595.806
595.665
595.531
595.398
595.269
595.144
595.023
594.905
594.791
594.681
594.575
594.473
594.377
594.284
594.197
594.114
594.037
593.964
593.897
593.836
593.779
593.733
593.687
593.651
593.621
593.598
593.58
593.573
593.567
593.577
593.588
593.611
593.641
593.68
593.727
593.784
593.851
593.924
594.013
594.106
594.213
594.33
594.457
594.596
594.747
594.909
595.084
595.27
595.469
595.681
595.907
596.145
596.397
596.664
596.945
597.24
597.55
597.875
598.215
598.571
598.943
599.33
599.734
600.154
600.591
601.044
601.514
602.002
602.504
603.028
603.564
604.123
604.696
605.285
605.896
606.522
607.163
607.827
608.504
609.199
609.911
610.641
611.386
612.149
612.928
613.722
614.533
615.358
616.201
617.051
617.925
618.806
619.705
620.608
621.534
622.464
623.41
624.358
625.328
626.298
627.278
628.266
629.261
630.262
631.268
632.278
633.293
634.303
635.329
636.339
637.364
638.377
639.392
640.405
641.407
642.416
643.405
644.4
645.377
646.349
647.31
648.26
649.198
650.123
651.035
651.931
652.813
653.677
654.524
655.354
656.165
656.957
657.727
658.48
659.209
659.918
660.605
661.269
661.912
662.531
663.127
663.701
664.252
664.78
665.284
665.767
666.226
666.665
667.079
667.474
667.846
668.199
668.53
668.843
669.135
669.41
669.666
669.907
670.128
670.335
670.527
670.703
670.867
671.016
671.154
671.278
671.393
671.497
671.591
671.675
671.751
671.819
671.88
671.934
671.981
672.022
672.058
672.09
672.116
672.139
672.156
672.173
672.184
672.194
672.201
672.206
672.208
672.21
672.209
672.208
672.205
672.202
672.197
672.192
672.187
672.181
672.175
672.168
672.162
672.155
672.148
672.142
672.135
672.129
672.123
672.117
672.111
672.105
672.1
672.095
672.091
672.087
672.083
672.079
672.076
672.073
672.07
672.068
672.065
672.064
672.062
672.061
672.06
672.06
672.059
672.059
672.059
672.059
672.06
672.061
672.062
672.063
672.064
672.066
672.067
672.069
672.071
672.073
672.076
672.078
672.081
672.083
672.086
672.089
672.091
672.094
672.097
672.101
672.104
672.107
672.11
672.113
672.117
672.12
672.124
672.128
672.132
672.136
672.138
672.138
672.136
672.14
672.146
672.149
672.155
672.159
672.172
672.177
672.184
672.184
672.188
672.191
672.192
672.186
672.179
672.181
672.19
672.198
672.202
672.205
672.207
672.212
672.218
672.223
672.227
672.231
672.234
672.237
672.238
672.24
672.242
672.245
672.247
672.25
672.252
672.254
672.256
672.259
672.261
672.263
672.266
672.268
672.27
672.272
672.274
672.276
672.278
672.28
672.282
672.284
672.286
672.288
672.29
672.292
672.294
672.296
672.297
672.299
672.301
672.302
672.304
672.306
672.307
672.309
672.31
672.312
672.313
672.315
672.316
672.318
672.319
672.32
672.322
672.323
672.324
672.326
672.327
672.328
672.329
672.33
672.331
672.333
672.334
672.335
672.336
672.337
672.338
672.339
672.34
672.341
672.342
672.343
672.344
672.345
672.346
672.347
672.347
672.348
672.349
672.35
672.351
672.351
672.352
672.353
672.354
672.354
672.355
672.356
672.356
672.357
672.357
672.358
672.359
672.36
672.36
672.361
672.361
672.362
672.362
672.363
672.363
672.364
672.364
672.365
672.365
672.366
672.366
672.367
672.367
672.367
672.368
672.368
672.369
672.369
672.369
672.37
672.37
672.371
672.371
672.371
672.372
672.372
672.372
672.373
672.373
672.373
672.373
672.374
672.374
672.374
672.374
672.375
672.375
672.375
672.375
672.376
672.376
672.376
672.376
672.376
672.377
672.377
672.377
672.377
672.377
672.377
672.378
672.378
672.378
672.378
672.378
672.378
672.378
672.379
672.379
672.379
672.379
672.379
672.379
672.379
672.379
672.379
672.379
672.379
672.379
672.38
672.38
672.38
672.38
672.38
672.38
672.38
672.38
672.38
672.38
672.38
672.38
672.38
672.38
672.38
672.38
672.38
672.38
672.38
672.38
672.38
672.38
672.38
672.38
672.38
672.38
672.38
672.38
672.38
672.38
672.38
672.38
672.38
672.38
672.38
672.38
672.38
672.38
672.38
672.38
672.38
672.379
672.379
672.379
672.379
672.379
672.379
672.379
672.379
672.379
672.379
672.379
672.379
672.379
672.379
672.378
672.378
672.378
672.378
672.378
672.378
672.378
672.378
672.378
672.377
672.377
672.377
672.377
672.377
672.377
672.377
672.377
672.377
672.376
672.376
672.376
672.376
672.376
672.376
672.376
672.376
672.376
672.375
672.375
672.375
672.375
672.375
672.375
672.375
672.375
672.375
672.374
672.374
672.374
672.374
672.374
672.374
672.374
672.374
672.373
672.373
672.373
672.373
672.373
672.373
672.372
672.372
672.372
672.372
672.372
672.371
672.371
672.371
672.371
672.371
672.371
672.37
672.37
672.37
672.37
672.37
672.37
672.37
672.37
672.37
672.37
672.37
672.37
672.37
672.369
672.37
672.369
672.369
672.369
672.369
672.369
672.369
672.369
672.369
672.369
672.369
672.369
672.369
672.369
672.369
672.369
672.369
672.369
672.369
672.369
672.37
672.37
672.37
672.37
672.37
672.37
672.37
672.371
672.371
672.371
672.372
672.372
672.372
672.372
672.373
672.373
672.374
672.374
672.375
672.375
672.376
672.377
672.378
672.378
672.379
672.38
672.381
672.382
672.384
672.385
672.386
672.388
672.389
672.391
672.393
672.395
672.397
672.4
672.402
672.405
672.408
672.411
672.415
672.418
672.422
672.427
672.431
672.436
672.441
672.447
672.453
672.46
672.467
672.474
672.483
672.491
672.5
672.51
672.521
672.532
672.544
672.557
672.57
672.585
672.6
672.616
672.633
672.651
672.671
672.691
672.713
672.736
672.76
672.786
672.812
672.841
672.871
672.902
672.935
672.97
673.006
673.044
673.083
673.125
673.167
673.212
673.258
673.305
673.354
673.404
673.454
673.506
673.558
673.61
673.662
673.713
673.763
673.811
673.858
673.901
673.942
673.98
674.014
674.043
674.07
674.093
674.113
674.13
674.144
674.156
674.167
674.176
674.183
674.189
674.194
674.198
674.202
674.204
674.208
674.211
674.216
674.222
674.23
674.238
674.244
674.246
674.244
607.518
607.494
607.469
607.437
607.405
607.366
607.32
607.263
607.2
607.131
607.053
606.962
606.861
606.757
606.644
606.524
606.399
606.266
606.129
605.986
605.84
605.688
605.534
605.374
605.214
605.048
604.881
604.711
604.54
604.366
604.19
604.014
603.834
603.655
603.474
603.292
603.109
602.926
602.742
602.557
602.371
602.187
601.999
601.816
601.628
601.443
601.256
601.072
600.884
600.7
600.515
600.331
600.146
599.964
599.779
599.6
599.416
599.237
599.057
598.878
598.703
598.524
598.353
598.176
598.008
597.835
597.668
597.501
597.336
597.173
597.012
596.852
596.698
596.54
596.389
596.24
596.093
595.948
595.809
595.668
595.535
595.402
595.274
595.148
595.027
594.909
594.796
594.686
594.581
594.479
594.382
594.29
594.203
594.12
594.043
593.97
593.904
593.843
593.786
593.74
593.694
593.659
593.628
593.605
593.588
593.581
593.576
593.585
593.597
593.62
593.65
593.689
593.737
593.793
593.861
593.934
594.023
594.117
594.224
594.341
594.468
594.608
594.758
594.92
595.096
595.282
595.481
595.693
595.919
596.157
596.41
596.677
596.958
597.254
597.564
597.889
598.229
598.585
598.957
599.345
599.749
600.169
600.606
601.059
601.529
602.017
602.52
603.043
603.58
604.138
604.712
605.301
605.912
606.538
607.179
607.843
608.52
609.215
609.927
610.656
611.402
612.165
612.943
613.738
614.548
615.374
616.216
617.066
617.94
618.82
619.719
620.622
621.548
622.477
623.423
624.371
625.34
626.31
627.29
628.278
629.272
630.272
631.278
632.287
633.302
634.311
635.337
636.346
637.37
638.383
639.398
640.41
641.411
642.42
643.408
644.402
645.379
646.35
647.31
648.26
649.197
650.122
651.033
651.928
652.809
653.673
654.52
655.349
656.159
656.951
657.72
658.473
659.201
659.909
660.596
661.26
661.902
662.521
663.117
663.69
664.241
664.769
665.273
665.755
666.214
666.653
667.067
667.462
667.834
668.186
668.518
668.831
669.123
669.398
669.654
669.895
670.116
670.324
670.515
670.692
670.856
671.006
671.144
671.268
671.384
671.487
671.582
671.667
671.743
671.811
671.872
671.926
671.974
672.015
672.052
672.083
672.11
672.133
672.151
672.168
672.179
672.189
672.196
672.202
672.204
672.206
672.205
672.205
672.202
672.199
672.194
672.19
672.184
672.178
672.172
672.166
672.159
672.153
672.146
672.14
672.134
672.127
672.121
672.115
672.11
672.104
672.099
672.094
672.09
672.086
672.082
672.078
672.075
672.072
672.069
672.067
672.065
672.063
672.062
672.061
672.06
672.059
672.059
672.059
672.059
672.059
672.06
672.061
672.061
672.063
672.064
672.066
672.067
672.069
672.071
672.073
672.076
672.078
672.08
672.083
672.086
672.089
672.091
672.094
672.097
672.101
672.104
672.107
672.11
672.113
672.117
672.12
672.124
672.127
672.132
672.136
672.138
672.138
672.137
672.14
672.146
672.15
672.155
672.159
672.171
672.177
672.183
672.185
672.188
672.191
672.192
672.186
672.18
672.181
672.19
672.198
672.202
672.205
672.208
672.212
672.218
672.223
672.227
672.231
672.234
672.236
672.238
672.24
672.242
672.245
672.247
672.25
672.252
672.254
672.257
672.259
672.261
672.263
672.266
672.268
672.27
672.272
672.274
672.276
672.278
672.28
672.282
672.284
672.286
672.288
672.29
672.292
672.294
672.296
672.297
672.299
672.301
672.302
672.304
672.306
672.307
672.309
672.31
672.312
672.313
672.315
672.316
672.318
672.319
672.32
672.322
672.323
672.324
672.326
672.327
672.328
672.329
672.33
672.332
672.333
672.334
672.335
672.336
672.337
672.338
672.339
672.34
672.341
672.342
672.343
672.344
672.345
672.346
672.347
672.347
672.348
672.349
672.35
672.351
672.351
672.352
672.353
672.354
672.354
672.355
672.356
672.356
672.357
672.357
672.358
672.359
672.36
672.36
672.361
672.361
672.362
672.362
672.363
672.363
672.364
672.364
672.365
672.365
672.366
672.366
672.367
672.367
672.367
672.368
672.368
672.369
672.369
672.369
672.37
672.37
672.371
672.371
672.371
672.372
672.372
672.372
672.373
672.373
672.373
672.373
672.374
672.374
672.374
672.374
672.375
672.375
672.375
672.375
672.376
672.376
672.376
672.376
672.376
672.377
672.377
672.377
672.377
672.377
672.377
672.378
672.378
672.378
672.378
672.378
672.378
672.378
672.379
672.379
672.379
672.379
672.379
672.379
672.379
672.379
672.379
672.379
672.38
672.379
672.38
672.38
672.38
672.38
672.38
672.38
672.38
672.38
672.38
672.38
672.38
672.38
672.38
672.38
672.38
672.38
672.38
672.38
672.38
672.38
672.38
672.38
672.38
672.38
672.38
672.38
672.38
672.38
672.38
672.38
672.38
672.38
672.38
672.38
672.38
672.38
672.38
672.38
672.38
672.38
672.38
672.379
672.379
672.379
672.379
672.379
672.379
672.379
672.379
672.379
672.379
672.379
672.379
672.379
672.379
672.378
672.378
672.378
672.378
672.378
672.378
672.378
672.378
672.378
672.377
672.377
672.377
672.377
672.377
672.377
672.377
672.377
672.377
672.376
672.376
672.376
672.376
672.376
672.376
672.376
672.376
672.376
672.375
672.375
672.375
672.375
672.375
672.375
672.375
672.375
672.375
672.374
672.374
672.374
672.374
672.374
672.374
672.374
672.374
672.373
672.373
672.373
672.373
672.373
672.373
672.372
672.372
672.372
672.372
672.372
672.371
672.371
672.371
672.371
672.371
672.371
672.37
672.37
672.37
672.37
672.37
672.37
672.37
672.37
672.37
672.37
672.37
672.37
672.37
672.369
672.37
672.369
672.369
672.369
672.369
672.369
672.369
672.369
672.369
672.369
672.369
672.369
672.369
672.369
672.369
672.369
672.369
672.369
672.369
672.369
672.37
672.37
672.37
672.37
672.37
672.37
672.37
672.371
672.371
672.371
672.372
672.372
672.372
672.372
672.373
672.373
672.374
672.374
672.375
672.375
672.376
672.377
672.378
672.378
672.379
672.38
672.381
672.382
672.384
672.385
672.386
672.388
672.389
672.391
672.393
672.395
672.397
672.399
672.402
672.405
672.408
672.411
672.414
672.418
672.422
672.426
672.431
672.436
672.441
672.447
672.453
672.46
672.467
672.474
672.482
672.491
672.5
672.51
672.52
672.532
672.543
672.556
672.57
672.584
672.599
672.615
672.633
672.651
672.67
672.69
672.712
672.735
672.759
672.784
672.811
672.84
672.87
672.901
672.934
672.968
673.005
673.042
673.082
673.123
673.166
673.21
673.256
673.303
673.352
673.402
673.452
673.504
673.556
673.608
673.66
673.711
673.762
673.81
673.856
673.9
673.941
673.978
674.013
674.042
674.069
674.092
674.112
674.129
674.144
674.156
674.167
674.175
674.183
674.189
674.194
674.198
674.202
674.205
674.208
674.211
674.216
674.222
674.229
674.237
674.243
674.246
674.245
607.517
607.492
607.469
607.437
607.405
607.367
607.32
607.265
607.202
607.132
607.053
606.963
606.862
606.758
606.645
606.525
606.399
606.266
606.13
605.986
605.84
605.688
605.534
605.374
605.214
605.048
604.881
604.711
604.54
604.366
604.19
604.014
603.834
603.655
603.474
603.292
603.109
602.926
602.742
602.557
602.371
602.188
601.999
601.816
601.628
601.443
601.256
601.073
600.885
600.701
600.516
600.332
600.147
599.966
599.78
599.601
599.418
599.239
599.059
598.88
598.705
598.527
598.355
598.179
598.01
597.837
597.671
597.504
597.339
597.176
597.015
596.855
596.701
596.544
596.393
596.243
596.097
595.952
595.814
595.673
595.539
595.407
595.278
595.153
595.032
594.915
594.802
594.692
594.586
594.485
594.388
594.296
594.209
594.126
594.05
593.977
593.911
593.85
593.794
593.747
593.701
593.667
593.636
593.613
593.596
593.589
593.584
593.594
593.606
593.629
593.659
593.699
593.746
593.803
593.871
593.944
594.033
594.127
594.235
594.351
594.479
594.619
594.769
594.932
595.107
595.293
595.493
595.706
595.932
596.17
596.423
596.69
596.971
597.267
597.577
597.902
598.243
598.599
598.971
599.358
599.762
600.183
600.62
601.073
601.544
602.031
602.534
603.058
603.594
604.153
604.727
605.316
605.927
606.553
607.194
607.857
608.534
609.23
609.941
610.671
611.416
612.178
612.957
613.751
614.562
615.387
616.229
617.079
617.953
618.833
619.731
620.634
621.559
622.489
623.434
624.381
625.35
626.319
627.299
628.286
629.28
630.28
631.285
632.294
633.308
634.317
635.342
636.351
637.374
638.386
639.4
640.412
641.413
642.421
643.408
644.402
645.378
646.349
647.308
648.257
649.194
650.118
651.028
651.923
652.803
653.667
654.513
655.341
656.151
656.942
657.711
658.463
659.191
659.899
660.585
661.249
661.891
662.509
663.105
663.678
664.228
664.756
665.26
665.742
666.202
666.64
667.054
667.449
667.821
668.174
668.505
668.818
669.111
669.386
669.642
669.883
670.104
670.312
670.504
670.681
670.845
670.995
671.133
671.258
671.374
671.478
671.572
671.658
671.734
671.803
671.864
671.919
671.966
672.009
672.045
672.077
672.104
672.127
672.145
672.162
672.174
672.185
672.192
672.197
672.2
672.202
672.202
672.201
672.199
672.196
672.192
672.187
672.182
672.176
672.17
672.164
672.157
672.151
672.145
672.138
672.132
672.126
672.12
672.114
672.109
672.103
672.098
672.093
672.089
672.085
672.081
672.077
672.074
672.071
672.069
672.066
672.064
672.063
672.061
672.06
672.059
672.059
672.058
672.058
672.059
672.059
672.059
672.06
672.061
672.063
672.064
672.066
672.067
672.069
672.071
672.073
672.076
672.078
672.08
672.083
672.086
672.089
672.091
672.094
672.097
672.101
672.104
672.107
672.11
672.113
672.117
672.12
672.124
672.127
672.132
672.136
672.138
672.138
672.137
672.141
672.146
672.15
672.155
672.159
672.17
672.176
672.182
672.184
672.188
672.191
672.192
672.186
672.181
672.182
672.19
672.198
672.202
672.206
672.208
672.212
672.218
672.223
672.227
672.23
672.234
672.236
672.238
672.24
672.242
672.245
672.247
672.25
672.252
672.254
672.257
672.259
672.261
672.263
672.266
672.268
672.27
672.272
672.274
672.276
672.278
672.28
672.282
672.284
672.286
672.288
672.29
672.292
672.294
672.296
672.297
672.299
672.301
672.302
672.304
672.306
672.307
672.309
672.31
672.312
672.313
672.315
672.316
672.318
672.319
672.32
672.322
672.323
672.324
672.326
672.327
672.328
672.329
672.33
672.332
672.333
672.334
672.335
672.336
672.337
672.338
672.339
672.34
672.341
672.342
672.343
672.344
672.345
672.346
672.347
672.347
672.348
672.349
672.35
672.351
672.351
672.352
672.353
672.354
672.354
672.355
672.356
672.356
672.357
672.357
672.358
672.359
672.36
672.36
672.361
672.361
672.362
672.362
672.363
672.363
672.364
672.364
672.365
672.365
672.366
672.366
672.367
672.367
672.367
672.368
672.368
672.369
672.369
672.369
672.37
672.37
672.371
672.371
672.371
672.372
672.372
672.372
672.373
672.373
672.373
672.373
672.374
672.374
672.374
672.374
672.375
672.375
672.375
672.375
672.376
672.376
672.376
672.376
672.376
672.377
672.377
672.377
672.377
672.377
672.377
672.378
672.378
672.378
672.378
672.378
672.378
672.378
672.379
672.379
672.379
672.379
672.379
672.379
672.379
672.379
672.379
672.379
672.38
672.379
672.38
672.38
672.38
672.38
672.38
672.38
672.38
672.38
672.38
672.38
672.38
672.38
672.38
672.38
672.38
672.38
672.38
672.38