/*--------------------------------*- C++ -*----------------------------------*\
  =========                 |
  \\      /  F ield         | OpenFOAM: The Open Source CFD Toolbox
   \\    /   O peration     | Website:  https://openfoam.org
    \\  /    A nd           | Version:  9
     \\/     M anipulation  |
\*---------------------------------------------------------------------------*/
FoamFile
{
    format      ascii;
    class       surfaceScalarField;
    location    "489";
    object      phi;
}
// * * * * * * * * * * * * * * * * * * * * * * * * * * * * * * * * * * * * * //

dimensions      [0 3 -1 0 0 0 0];

internalField   nonuniform List<scalar> 
314172
(
0.000106067
-9.05249e-05
-1.5844e-05
0.00016015
-4.64419e-05
0.000131449
2.09918e-05
6.20234e-05
7.24713e-05
-4.81671e-05
0.000108711
-0.000191729
0.000143195
-0.000326828
0.000135949
-0.000463972
0.000137444
-0.000633897
0.000161934
-0.00081305
0.000190348
-0.00104339
0.000230832
-0.00126722
0.00022354
-0.00144916
0.00018323
-0.0016262
0.000178256
-0.00179917
0.000178124
-0.00197703
0.000175328
-0.00214988
0.000175216
-0.00232311
0.000171379
-0.00249264
0.000171244
-0.00266154
0.000166958
-0.0028271
0.000167009
-0.00299159
0.000162646
-0.00315296
0.000162647
-0.00331327
0.000158215
-0.00347085
0.000158961
-0.00362671
0.000154098
-0.00378053
0.000153681
-0.00393251
0.000151847
-0.00408277
0.000150244
-0.00423083
0.00014781
-0.00437773
0.00014664
-0.0045229
0.000146174
-0.0046662
0.000141305
-0.00480809
0.000141639
-0.0049485
0.000140237
-0.00508758
0.000139102
-0.00522523
0.000137483
-0.00536174
0.000136453
-0.00549708
0.000135127
-0.00563076
0.000133489
-0.00576393
0.000132733
-0.0058955
0.000132798
-0.00602649
0.000128778
-0.00615619
0.000130988
-0.00628497
0.000126718
-0.00641248
0.000127462
-0.00653982
0.000126996
-0.00666597
0.000127286
-0.00679129
0.000122877
-0.00691562
0.000124237
-0.00703943
0.000123393
-0.00716205
0.00012242
-0.00728475
0.000122053
-0.0074058
0.000122281
-0.00752723
0.000118503
-0.007647
0.000121349
-0.00776683
0.000117189
-0.00788557
0.000118687
-0.00800353
0.000117386
-0.00812153
0.000117735
-0.0082382
0.00011848
-0.00835543
0.000114727
-0.00847067
0.00011644
-0.0085867
0.000113001
-0.00870073
0.000115497
-0.00881511
0.000111362
-0.00892823
0.000113164
-0.00904108
0.000112454
-0.00915334
0.000112147
-0.00926518
0.000111392
-0.009376
0.000110521
-0.00948698
0.000110231
-0.00959651
0.000111137
-0.00970634
0.000106743
-0.00981478
0.000108417
-0.00992283
0.000107852
-0.0100301
0.000107285
-0.0101373
0.000107027
-0.0102431
0.000107381
-0.0103491
0.000102978
-0.0104536
0.000104474
-0.0105578
0.000103575
-0.0106613
0.00010288
-0.010764
0.000102211
-0.0108659
0.000101539
-0.0109671
0.00010053
-0.0110674
0.000100365
-0.0111673
9.95827e-05
-0.0112663
9.85411e-05
-0.0113645
9.75339e-05
-0.0114618
9.69264e-05
-0.0115583
9.59145e-05
-0.0116537
9.51335e-05
-0.0117485
9.4361e-05
-0.0118421
9.35229e-05
-0.0119351
9.2385e-05
-0.012027
9.16544e-05
-0.0121178
9.05958e-05
-0.0122081
8.97775e-05
-0.0122965
8.96112e-05
-0.0123848
8.53941e-05
-0.0124711
8.62272e-05
-0.0125567
8.52499e-05
-0.012641
8.39403e-05
-0.0127246
8.30763e-05
-0.0128061
8.27459e-05
-0.0128876
7.90882e-05
-0.0129666
8.02595e-05
-0.0130451
7.6489e-05
-0.0131217
7.65314e-05
-0.0131971
7.52328e-05
-0.0132712
7.38721e-05
-0.0133437
7.20998e-05
-0.013415
7.1139e-05
-0.0134841
6.98041e-05
-0.0135526
6.62771e-05
-0.0136184
6.6314e-05
-0.0136833
6.28061e-05
-0.0137459
6.24019e-05
-0.013807
6.07388e-05
-0.0138663
5.89588e-05
-0.0139238
5.73328e-05
-0.0139793
5.5302e-05
-0.0140329
5.36336e-05
-0.0140844
5.17261e-05
-0.014134
4.83296e-05
-0.0141812
4.69917e-05
-0.0142265
4.52092e-05
-0.0142695
4.29461e-05
-0.0143105
3.98413e-05
-0.0143488
3.81857e-05
-0.0143849
3.5975e-05
-0.0144185
3.3414e-05
-0.0144495
3.07987e-05
-0.0144781
2.79811e-05
-0.0145041
2.58024e-05
-0.0145274
2.31869e-05
-0.014548
2.05792e-05
-0.0145658
1.76866e-05
-0.0145808
1.49376e-05
-0.0145928
1.18424e-05
-0.0146019
8.95063e-06
-0.0146078
5.9554e-06
-0.0146106
2.625e-06
-0.01461
-6.65992e-07
-0.0146058
-4.19686e-06
-0.0145989
-7.97234e-06
-0.0145879
-1.00969e-05
-0.0145742
-1.49429e-05
-0.0145565
-1.65213e-05
-0.0145354
-2.12055e-05
-0.0145114
-2.54745e-05
-0.014483
-2.67723e-05
-0.0144511
-3.18555e-05
-0.0144163
-3.66533e-05
-0.0143768
-3.77532e-05
-0.0143341
-4.27134e-05
-0.0142875
-4.6578e-05
-0.0142371
-5.05816e-05
-0.0141826
-5.4227e-05
-0.0141242
-5.8355e-05
-0.0140619
-6.24031e-05
-0.0139953
-6.65452e-05
-0.0139247
-7.07799e-05
-0.0138498
-7.44813e-05
-0.0137712
-7.81743e-05
-0.0136878
-8.32396e-05
-0.0136017
-8.92089e-05
-0.0135094
-8.88382e-05
-0.0134144
-9.51066e-05
-0.013314
-9.9937e-05
-0.0132112
-0.000106752
-0.0131021
-0.000105874
-0.0129901
-0.000112075
-0.0128728
-0.000116823
-0.0127529
-0.000123015
-0.0126267
-0.000121437
-0.0124975
-0.000128764
-0.0123639
-0.000133319
-0.0122262
-0.000137566
-0.0120843
-0.00014182
-0.0119383
-0.000145964
-0.0117879
-0.000149548
-0.011634
-0.00015332
-0.0114751
-0.000158403
-0.0113148
-0.000164627
-0.011147
-0.000162387
-0.0109788
-0.000172359
-0.0108041
-0.00016942
-0.0106273
-0.000177026
-0.0104468
-0.000180013
-0.0102619
-0.00018427
-0.0100757
-0.000189632
-0.00988318
-0.000186553
-0.00969039
-0.000195377
-0.00949196
-0.000191882
-0.00929228
-0.000199301
-0.00908932
-0.000201988
-0.00888387
-0.000205048
-0.00867591
-0.000207818
-0.00846541
-0.000209751
-0.00825288
-0.000212248
-0.00803811
-0.000213989
-0.00782158
-0.000216105
-0.0076032
-0.000217342
-0.0073833
-0.000219174
-0.00716232
-0.000220748
-0.00694005
-0.000222137
-0.00671682
-0.000222414
-0.00649258
-0.000223414
-0.00626852
-0.000225028
-0.00604307
-0.00022217
-0.00581802
-0.000224588
-0.00559322
-0.00022455
-0.00536846
-0.000224342
-0.00514421
-0.000223582
-0.00492034
-0.000221552
-0.00469772
-0.000222296
-0.00447616
-0.000221148
-0.00425586
-0.000219961
-0.0040371
-0.000218257
-0.00381971
-0.000215901
-0.00360467
-0.000214767
-0.00339145
-0.000212913
-0.00318072
-0.000210424
-0.00297169
-0.000206628
-0.00276615
-0.000206056
-0.00256288
-0.000202858
-0.00236277
-0.000199949
-0.00216547
-0.000196884
-0.00197161
-0.000193724
-0.00178081
-0.000190338
-0.00159369
-0.000186945
-0.00140992
-0.000183375
-0.00123012
-0.000179733
-0.00105305
-0.000174035
-0.000881219
-0.000174013
-0.000712463
-0.00016852
-0.000547859
-0.000164693
-0.000387215
-0.000160701
-0.000230688
-0.000156656
-7.83243e-05
-0.000152306
7.06142e-05
-0.000146209
0.00021383
-0.000145681
0.000353458
-0.000139512
0.000488699
-0.000135362
0.000619688
-0.00013116
0.000746494
-0.000126685
0.000869202
-0.000122755
0.000987554
-0.000118249
0.00110179
-0.000114518
0.00121217
-0.000110568
0.00131841
-0.000106804
0.00142088
-0.000102581
0.00151925
-9.88396e-05
0.00161399
-9.50668e-05
0.00170475
-9.11169e-05
0.00179264
-8.66659e-05
0.00187591
-8.5313e-05
0.00195683
-8.03079e-05
0.0020335
-7.843e-05
0.00210739
-7.38292e-05
0.00217788
-7.07515e-05
0.00224557
-6.75692e-05
0.00230948
-6.59631e-05
0.00237125
-6.15895e-05
0.00242952
-5.9941e-05
0.00248557
-5.6454e-05
0.00253916
-5.4166e-05
0.00258991
-5.10275e-05
0.00263763
-4.8125e-05
0.00268325
-4.59286e-05
0.00272667
-4.36335e-05
0.00276771
-4.23077e-05
0.00280674
-3.94119e-05
0.00284388
-3.73993e-05
0.00287883
-3.55757e-05
0.002912
-3.35126e-05
0.00294321
-3.15562e-05
0.00297282
-2.98146e-05
0.00300062
-2.80246e-05
0.00302688
-2.64291e-05
0.00305155
-2.48973e-05
0.00307475
-2.34181e-05
0.0030966
-2.19517e-05
0.00311697
-2.05297e-05
0.00313617
-1.93517e-05
0.00315395
-1.84239e-05
0.00317107
-1.76437e-05
0.00318688
-1.62302e-05
0.00320115
-1.45451e-05
0.00321418
-1.37686e-05
0.00322652
-1.2735e-05
0.00323808
-1.16891e-05
0.00324869
-1.07017e-05
0.00325846
-9.85985e-06
0.00326737
-9.07119e-06
0.00327551
-8.25029e-06
0.00328297
-7.51268e-06
0.00328961
-6.89149e-06
0.00329573
-6.09724e-06
0.00330122
-5.52691e-06
0.00330604
-4.89673e-06
0.00331035
-4.37296e-06
0.00331406
-3.81259e-06
0.00331728
-3.27835e-06
0.00331999
-2.81718e-06
0.00332218
-2.3922e-06
0.00332451
-2.36761e-06
0.00332623
-1.92057e-06
0.00332708
-8.54669e-07
0.00332741
-4.04559e-07
0.00332752
-1.80453e-07
0.00332741
6.10726e-08
0.00332697
3.97425e-07
0.00332615
6.68754e-07
0.00332513
1.0071e-06
0.00332383
1.29347e-06
0.00332224
1.59008e-06
0.00332041
1.83254e-06
0.00331832
2.10377e-06
0.00331603
2.30196e-06
0.00331349
2.55449e-06
0.00331073
2.75403e-06
0.00330781
3.0002e-06
0.00330468
3.14615e-06
0.00330125
3.41347e-06
0.0032978
3.47574e-06
0.00329455
3.24131e-06
0.00329108
3.46389e-06
0.00328695
4.46674e-06
0.00328166
4.64423e-06
0.00327797
5.34257e-06
0.00327081
4.23586e-06
0.00326575
1.57309e-05
0.00323467
1.56872e-05
0.00323361
4.442e-06
0.00329927
-6.56014e-05
0.00337243
-7.40982e-05
0.00340515
-1.78634e-05
0.00340166
2.04615e-06
0.00338959
1.26391e-05
0.00338678
1.20439e-05
0.00336101
1.36646e-05
0.00331998
7.15462e-05
0.00319651
8.68006e-05
0.00313744
5.80468e-05
0.00310704
5.70914e-08
0.0031021
1.01022e-05
0.00308882
1.45353e-05
0.00308074
1.42816e-05
0.0031732
-9.27098e-05
0.00331168
-0.000143203
0.00335543
-4.768e-05
0.00335839
-3.55964e-06
0.00336021
1.10397e-05
0.00333062
2.18462e-05
0.00334658
-2.06447e-06
0.00336288
-2.96195e-05
0.003382
-2.16419e-05
0.00338101
8.81749e-07
0.00337265
8.7787e-06
0.00337561
-2.85525e-06
0.00337369
-4.8542e-06
0.0033771
1.14407e-06
0.00337616
5.26952e-07
0.00337402
2.22405e-06
0.00337096
3.19783e-06
0.00336869
2.30139e-06
0.00336484
3.92849e-06
0.00335787
7.0355e-06
0.00335134
6.94391e-06
0.00334465
6.55444e-06
0.00333824
6.4264e-06
0.0033318
6.37755e-06
0.00332547
6.3126e-06
0.00331909
6.32514e-06
0.00331282
6.25644e-06
0.00330651
6.28307e-06
0.00330033
6.19792e-06
0.00329409
6.20913e-06
0.00328793
6.14542e-06
0.00328177
6.15386e-06
0.0032757
6.07857e-06
0.00326958
6.09226e-06
0.00326351
6.05895e-06
0.00325745
6.06763e-06
0.00325147
6.0188e-06
0.00324699
4.44785e-06
0.00324208
4.89928e-06
0.00323495
7.11918e-06
0.00322822
6.78962e-06
0.00322187
6.30882e-06
0.00321579
6.11866e-06
0.00320967
6.07812e-06
0.00320366
6.0245e-06
0.00319762
6.02815e-06
0.00319165
5.9569e-06
0.00318569
5.9661e-06
0.00317978
5.8653e-06
0.00317389
5.89278e-06
0.0031681
5.82146e-06
0.00316226
5.80374e-06
0.00315655
5.72524e-06
0.00315078
5.74178e-06
0.00314509
5.68931e-06
0.00313941
5.68312e-06
0.00313381
5.58777e-06
0.00312953
4.29538e-06
0.00312494
4.56245e-06
0.00311852
6.42063e-06
0.00311238
6.14596e-06
0.0031066
5.78064e-06
0.00310105
5.54727e-06
0.00309551
5.52564e-06
0.00309007
5.43971e-06
0.00308461
5.44903e-06
0.00307926
5.35366e-06
0.00307388
5.3686e-06
0.00306861
5.26954e-06
0.00306331
5.30035e-06
0.00305809
5.19502e-06
0.00305286
5.22006e-06
0.00304774
5.11352e-06
0.00304257
5.16276e-06
0.00303748
5.08537e-06
0.00303236
5.11099e-06
0.00302735
4.98913e-06
0.00302342
3.92925e-06
0.00301927
4.1341e-06
0.00301354
5.72677e-06
0.00300802
5.51777e-06
0.0030028
5.21801e-06
0.00299781
4.98533e-06
0.0029928
5.01342e-06
0.00298786
4.92733e-06
0.0029829
4.9615e-06
0.00297803
4.85704e-06
0.00297313
4.89567e-06
0.00296834
4.78497e-06
0.00296352
4.82642e-06
0.00295881
4.71511e-06
0.00295406
4.75177e-06
0.00294941
4.63716e-06
0.00294471
4.71264e-06
0.00294006
4.62557e-06
0.0029354
4.68873e-06
0.00293086
4.53364e-06
0.00292723
3.64308e-06
0.00292341
3.8101e-06
0.00291824
5.22267e-06
0.00291321
4.99835e-06
0.00290845
4.78059e-06
0.0029039
4.53775e-06
0.00289933
4.58818e-06
0.00289483
4.47377e-06
0.00289032
4.54189e-06
0.00288589
4.40086e-06
0.00288144
4.48088e-06
0.00287706
4.33506e-06
0.00287266
4.41029e-06
0.00286836
4.28645e-06
0.002864
4.35044e-06
0.0028598
4.24003e-06
0.0028555
4.29362e-06
0.00285129
4.20886e-06
0.00284702
4.26755e-06
0.00284291
4.10807e-06
0.0028396
3.31981e-06
0.00283613
3.43375e-06
0.00283141
4.70838e-06
0.00282688
4.52441e-06
0.00282256
4.3109e-06
0.0028185
4.06835e-06
0.00281438
4.12176e-06
0.00281035
4.02092e-06
0.00280627
4.08129e-06
0.00280232
3.94912e-06
0.00279829
4.0163e-06
0.00279441
3.90656e-06
0.00279044
3.93903e-06
0.00278662
3.84366e-06
0.00278272
3.89657e-06
0.00277896
3.73687e-06
0.00277513
3.85152e-06
0.00277139
3.7292e-06
0.00276756
3.80224e-06
0.00276395
3.63489e-06
0.00276104
2.89593e-06
0.00275804
3.00286e-06
0.00275384
4.19412e-06
0.00274982
3.99954e-06
0.00274599
3.82711e-06
0.00274242
3.57575e-06
0.00273877
3.64825e-06
0.00273524
3.54191e-06
0.00273162
3.62046e-06
0.00272813
3.48683e-06
0.00272456
3.59177e-06
0.00272112
3.44303e-06
0.00271758
3.53895e-06
0.00271418
3.4081e-06
0.00271069
3.4984e-06
0.00270735
3.32986e-06
0.00270391
3.46373e-06
0.00270056
3.33516e-06
0.00269713
3.4447e-06
0.00269387
3.25727e-06
0.00269126
2.59071e-06
0.00268858
2.6858e-06
0.00268474
3.8192e-06
0.0026811
3.6553e-06
0.00267759
3.49456e-06
0.00267436
3.2484e-06
0.00267102
3.33366e-06
0.0026678
3.21789e-06
0.00266449
3.31401e-06
0.00266132
3.16818e-06
0.00265804
3.2765e-06
0.00265492
3.12196e-06
0.0026517
3.23189e-06
0.00264863
3.0752e-06
0.00264545
3.17698e-06
0.00264245
2.99871e-06
0.00263931
3.13622e-06
0.00263631
3.00671e-06
0.00263318
3.1142e-06
0.00263027
2.92705e-06
0.00262794
2.30569e-06
0.00262559
2.37082e-06
0.00262212
3.46263e-06
0.00261884
3.27311e-06
0.0026157
3.14464e-06
0.00261284
2.85601e-06
0.00260988
2.93984e-06
0.0026071
2.79309e-06
0.00260423
2.86644e-06
0.00260157
2.64495e-06
0.0025989
2.66495e-06
0.00259649
2.35192e-06
0.00259411
2.40471e-06
0.00259203
2.06575e-06
0.00258994
2.04592e-06
0.00258812
1.89926e-06
0.0025861
2.02777e-06
0.00258417
1.97895e-06
0.00258203
2.12072e-06
0.00258003
2.03924e-06
0.00257849
1.51324e-06
0.00257688
1.60641e-06
0.00257416
2.72111e-06
0.00257162
2.53673e-06
0.00256921
2.36901e-06
0.00256716
2.07663e-06
0.00256502
2.12909e-06
0.00256307
1.94502e-06
0.00256103
2.04863e-06
0.00255913
1.89314e-06
0.00255708
2.05654e-06
0.00255516
1.93164e-06
0.00255305
2.10837e-06
0.00255107
2.00152e-06
0.0025489
2.16074e-06
0.00254688
2.03195e-06
0.00254465
2.23027e-06
0.00254251
2.13888e-06
0.00254019
2.32235e-06
0.00253803
2.15714e-06
0.00253636
1.66119e-06
0.00253467
1.69782e-06
0.00253188
2.77627e-06
0.00252925
2.62701e-06
0.00252668
2.57168e-06
0.00252437
2.30077e-06
0.00252193
2.44646e-06
0.00251962
2.30518e-06
0.00251717
2.44612e-06
0.00251489
2.27411e-06
0.00251247
2.41923e-06
0.00251022
2.23229e-06
0.00250784
2.37953e-06
0.00250564
2.1929e-06
0.00250331
2.32235e-06
0.0025012
2.12174e-06
0.00249891
2.28164e-06
0.0024968
2.11614e-06
0.00249454
2.25425e-06
0.00249249
2.02912e-06
0.00249096
1.5362e-06
0.00248946
1.49519e-06
0.00248694
2.51579e-06
0.00248462
2.32669e-06
0.00248235
2.26328e-06
0.0024804
1.95361e-06
0.00247832
2.07561e-06
0.00247641
1.89354e-06
0.00247437
2.04553e-06
0.00247252
1.84551e-06
0.00247053
1.98464e-06
0.00246874
1.79337e-06
0.00246681
1.93747e-06
0.00246505
1.73987e-06
0.00246316
1.90976e-06
0.00246147
1.68212e-06
0.00245959
1.87965e-06
0.00245785
1.73537e-06
0.00245596
1.89821e-06
0.00245425
1.70115e-06
0.00245299
1.26763e-06
0.00245176
1.23899e-06
0.00244947
2.29191e-06
0.00244731
2.14931e-06
0.00244515
2.18017e-06
0.00244325
1.90976e-06
0.00244114
2.12101e-06
0.00243911
2.05846e-06
0.00243686
2.24913e-06
0.00243473
2.18365e-06
0.00243229
2.4162e-06
0.00242998
2.31542e-06
0.00242738
2.61557e-06
0.00242483
2.55539e-06
0.00242195
2.88156e-06
0.00241916
2.8231e-06
0.00241605
3.05691e-06
0.00241301
3.03507e-06
0.00240972
3.29045e-06
0.00240665
3.05258e-06
0.00240394
2.6764e-06
0.00240134
2.58419e-06
0.00239787
3.46266e-06
0.00239468
3.07578e-06
0.00239171
3.04543e-06
0.00238915
2.52351e-06
0.00238664
2.51671e-06
0.00238444
2.08893e-06
0.00238233
2.21072e-06
0.00238056
1.75059e-06
0.00237875
1.80949e-06
0.00237729
1.4835e-06
0.00237575
1.57658e-06
0.00237444
1.27392e-06
0.00237308
1.44873e-06
0.00237197
1.12473e-06
0.00237065
1.32647e-06
0.00236953
1.1235e-06
0.00236821
1.35551e-06
0.00236713
1.14589e-06
0.00236642
7.71021e-07
0.00236577
7.18907e-07
0.00236413
1.68386e-06
0.00236259
1.61051e-06
0.00236103
1.56982e-06
0.0023598
1.24265e-06
0.0023583
1.50114e-06
0.002357
1.31541e-06
0.00235549
1.52945e-06
0.00235418
1.32394e-06
0.00235265
1.55678e-06
0.00235135
1.39813e-06
0.00234981
1.54333e-06
0.00234856
1.27319e-06
0.00234703
1.53306e-06
0.00234579
1.26081e-06
0.00234435
1.47675e-06
0.00234308
1.30086e-06
0.00234161
1.49714e-06
0.00234043
1.33341e-06
0.00233955
8.15585e-07
0.00233893
6.41759e-07
0.00233724
1.70413e-06
0.00233582
1.56362e-06
0.00233433
1.40994e-06
0.00233332
1.05114e-06
0.00233199
1.33391e-06
0.00233095
1.09078e-06
0.00232969
1.27068e-06
0.00232872
1.02217e-06
0.00232753
1.22364e-06
0.00232662
9.53962e-07
0.00232552
1.09998e-06
0.00232469
8.65638e-07
0.00232363
1.03494e-06
0.002323
9.7848e-07
0.00232193
8.20927e-07
0.0023213
6.58332e-07
0.00232036
8.94023e-07
0.00231969
6.75362e-07
0.00231936
2.53165e-07
0.00231926
1.13515e-07
0.00231822
1.06987e-06
0.00231745
8.3325e-07
0.00231658
9.0333e-07
0.00231608
5.42631e-07
0.00231539
6.14525e-07
0.00231491
4.37774e-07
0.00231445
9.35142e-07
0.00231397
8.93028e-08
0.00231363
3.20571e-07
0.00231347
2.50404e-07
0.00231297
5.42972e-07
0.00231277
3.15721e-07
0.00231228
4.4631e-07
0.00231202
2.6186e-07
0.00231162
7.58134e-07
0.00231106
1.14305e-07
0.00231054
5.29683e-07
0.00230999
6.08072e-07
0.00230953
3.81119e-07
0.00230921
5.99444e-07
0.00230763
1.25033e-06
0.00230644
1.27266e-06
0.00230486
1.05816e-06
0.00230368
1.25884e-06
0.00230169
1.72007e-06
0.00229963
2.07763e-06
0.00229713
2.45636e-06
0.00229473
2.34993e-06
0.00229175
2.7017e-06
0.00228866
2.98142e-06
0.00228486
3.66687e-06
0.00228077
3.96305e-06
0.00227619
4.44673e-06
0.00227132
4.57016e-06
0.00226601
5.19484e-06
0.0022604
5.4942e-06
0.00225405
5.92397e-06
0.0022475
6.47927e-06
0.00224052
6.74227e-06
0.00223321
7.21401e-06
0.00222419
8.54375e-06
0.00221478
9.37444e-06
0.00220431
1.02125e-05
0.00219345
1.07271e-05
0.00218163
1.17368e-05
0.00216911
1.23047e-05
0.00215558
1.34262e-05
0.00214113
1.42328e-05
0.00212546
1.55984e-05
0.00210871
1.66106e-05
0.00209044
1.77659e-05
0.00207118
1.92479e-05
0.00205012
2.08758e-05
0.00202797
2.21071e-05
0.00200397
2.35966e-05
0.00197869
2.54465e-05
0.00195133
2.72935e-05
0.00192221
2.85084e-05
0.00189153
3.08761e-05
0.00185797
3.32385e-05
0.00182232
3.55564e-05
0.00178458
3.74697e-05
0.00174459
3.99245e-05
0.00170227
4.21071e-05
0.0016574
4.48757e-05
0.00160975
4.74178e-05
0.00155929
5.04688e-05
0.00150595
5.31316e-05
0.00144979
5.62812e-05
0.00139075
5.88083e-05
0.00132904
6.17519e-05
0.00126442
6.43025e-05
0.00119725
6.71981e-05
0.00112708
6.92484e-05
0.00105555
7.37116e-05
0.000980705
7.49772e-05
0.000903874
7.49165e-05
0.000827085
7.86764e-05
0.000747247
7.83411e-05
0.000668736
8.11178e-05
0.000589565
7.71681e-05
0.000515456
7.67016e-05
0.000441051
7.09938e-05
0.000372679
6.9484e-05
0.000306448
6.51154e-05
0.00024638
6.32579e-05
0.000188904
5.51201e-05
0.000138622
5.16871e-05
9.22916e-05
4.59175e-05
5.18736e-05
4.30739e-05
1.47518e-05
3.57203e-05
-1.74255e-05
3.30431e-05
-4.63692e-05
2.88703e-05
-7.17028e-05
2.66126e-05
-9.44264e-05
2.29933e-05
-0.000114762
2.05237e-05
-0.000133611
1.91178e-05
-0.000152435
1.91659e-05
-0.00017257
2.03627e-05
-0.000194803
2.28638e-05
-0.00021821
2.37181e-05
-0.000240663
2.259e-05
-0.000258124
1.77155e-05
-0.000265528
7.51927e-06
-0.000256358
-8.99275e-06
-0.00022605
-3.01988e-05
-0.000169891
-5.60369e-05
-9.21589e-05
-7.75086e-05
-1.08877e-05
-8.09482e-05
-4.06748e-05
3.02889e-05
0.000110479
-0.00014603
-5.59472e-05
0.000159763
-9.39608e-05
0.000123325
4.97355e-05
3.61355e-05
0.000155471
-9.47201e-05
0.000233827
-0.000254236
0.00029941
-0.000429681
0.000313927
-0.000616321
0.000330026
-0.000812981
0.00036127
-0.00101525
0.000405725
-0.00122415
0.000447377
-0.00142214
0.000426108
-0.00161413
0.00037724
-0.0018074
0.000373152
-0.00199703
0.000369875
-0.0021877
0.000364629
-0.0023748
0.000363061
-0.00256053
0.000355965
-0.00274343
0.000354702
-0.00292437
0.000346781
-0.00310264
0.000345794
-0.00327864
0.000337624
-0.00345219
0.000336607
-0.00362355
0.000328483
-0.00379262
0.000328497
-0.00395932
0.00031979
-0.00412415
0.000318161
-0.00428668
0.000314183
-0.00444729
0.000310627
-0.0046058
0.000306027
-0.00476262
0.000303165
-0.00491758
0.000301479
-0.00507061
0.00029322
-0.00522229
0.000292899
-0.00537217
0.000289883
-0.00552058
0.000287262
-0.0056675
0.000284116
-0.00581309
0.000281824
-0.00595732
0.000279129
-0.00610015
0.00027607
-0.00624192
0.000274143
-0.00638239
0.000273703
-0.00652173
0.000266893
-0.00666013
0.000269806
-0.00679721
0.000262605
-0.00693355
0.000263476
-0.00706893
0.000262021
-0.00720325
0.000262044
-0.00733663
0.000254936
-0.00746936
0.000256667
-0.00760113
0.000254802
-0.00773204
0.000253153
-0.00786238
0.000251957
-0.00799163
0.000252034
-0.00812048
0.000245894
-0.00824841
0.000249878
-0.0083757
0.000243096
-0.00850239
0.000245099
-0.0086283
0.000242874
-0.00875375
0.000242989
-0.00887827
0.000243633
-0.00900241
0.000237534
-0.00912569
0.00024018
-0.00924859
0.000234355
-0.00937051
0.000238014
-0.00949195
0.000231282
-0.0096128
0.000233834
-0.00973287
0.000232235
-0.00985245
0.000231512
-0.00997139
0.000229969
-0.0100897
0.000228537
-0.0102076
0.000227629
-0.0103244
0.000228612
-0.0104409
0.000221694
-0.0105567
0.000224044
-0.0106717
0.000222687
-0.0107861
0.000221576
-0.0108999
0.000220687
-0.0110127
0.000220772
-0.0111251
0.000213899
-0.0112368
0.000215912
-0.0113476
0.000213957
-0.0114578
0.000212571
-0.0115671
0.000211199
-0.0116756
0.000209681
-0.0117834
0.0002078
-0.0118903
0.000207217
-0.0119964
0.000205386
-0.0121018
0.000203511
-0.0122063
0.000201543
-0.0123098
0.000200191
-0.0124125
0.000198112
-0.0125141
0.000196571
-0.0126148
0.000194693
-0.0127145
0.000193132
-0.0128134
0.00019077
-0.0129111
0.000189241
-0.0130078
0.00018696
-0.0131035
0.000185122
-0.0131976
0.000184184
-0.013291
0.000177369
-0.0133831
0.000178046
-0.0134739
0.000175832
-0.0135635
0.000173265
-0.0136521
0.000171202
-0.0137389
0.000169981
-0.0138248
0.000163762
-0.0139089
0.000164797
-0.0139918
0.000158281
-0.0140731
0.00015765
-0.0141529
0.000154865
-0.0142312
0.000151961
-0.014308
0.000148553
-0.0143831
0.000146137
-0.0144562
0.00014321
-0.014528
0.000136934
-0.0145976
0.000136127
-0.0146656
0.000129787
-0.0147317
0.000128322
-0.0147959
0.000124642
-0.0148581
0.000120959
-0.0149182
0.000117389
-0.0149763
0.000113198
-0.0150321
0.000109462
-0.0150857
0.000105371
-0.0151371
9.90881e-05
-0.0151862
9.59609e-05
-0.0152329
9.18281e-05
-0.0152772
8.71833e-05
-0.0153191
8.11959e-05
-0.0153583
7.73682e-05
-0.0153949
7.25262e-05
-0.0154288
6.72161e-05
-0.0154599
6.17991e-05
-0.0154884
5.6154e-05
-0.015514
5.13044e-05
-0.0155366
4.57952e-05
-0.0155562
4.02256e-05
-0.0155729
3.42688e-05
-0.0155863
2.84025e-05
-0.0155966
2.20529e-05
-0.0156036
1.59126e-05
-0.0156073
9.66023e-06
-0.0156076
2.91589e-06
-0.0156046
-3.65651e-06
-0.0155981
-1.06654e-05
-0.0155883
-1.82692e-05
-0.0155745
-2.33938e-05
-0.0155574
-3.26593e-05
-0.0155362
-3.71208e-05
-0.0155114
-4.60359e-05
-0.0154829
-5.45249e-05
-0.0154502
-5.86814e-05
-0.0154137
-6.83177e-05
-0.0153736
-7.7618e-05
-0.0153289
-8.15301e-05
-0.0152804
-9.11355e-05
-0.0152278
-9.91215e-05
-0.015171
-0.000107319
-0.01511
-0.000115089
-0.0150447
-0.000123572
-0.0149751
-0.000131957
-0.0149011
-0.000140454
-0.0148227
-0.000149086
-0.0147399
-0.000156995
-0.0146528
-0.000164972
-0.0145611
-0.000174749
-0.0144655
-0.000185971
-0.0143646
-0.000187997
-0.0142596
-0.000199854
-0.01415
-0.00020924
-0.0140365
-0.000221845
-0.0139176
-0.000223025
-0.0137947
-0.000234845
-0.013667
-0.000244027
-0.0135355
-0.000255794
-0.0133986
-0.000255993
-0.0132576
-0.000269255
-0.0131124
-0.000278336
-0.0129626
-0.000286971
-0.0128086
-0.000295695
-0.0126502
-0.000304044
-0.0124874
-0.000311742
-0.0123205
-0.000319771
-0.0121493
-0.000329017
-0.0119748
-0.000340641
-0.0117949
-0.000339494
-0.0116123
-0.000356451
-0.0114248
-0.000354245
-0.0112341
-0.00036752
-0.0110397
-0.000373935
-0.0108415
-0.000381894
-0.0106404
-0.000391904
-0.0104349
-0.000389146
-0.0102271
-0.00040402
-0.0100152
-0.000400551
-0.00980088
-0.000413051
-0.00958378
-0.000418324
-0.00936394
-0.000424481
-0.00914163
-0.000429592
-0.00891682
-0.000433841
-0.00868992
-0.000438585
-0.00846086
-0.000442321
-0.00823004
-0.000446282
-0.00799742
-0.000449093
-0.0077634
-0.000452379
-0.00752818
-0.000455561
-0.00729189
-0.000457806
-0.00705459
-0.000458877
-0.00681668
-0.000460425
-0.00657851
-0.000463075
-0.00633968
-0.000459157
-0.00610099
-0.000462546
-0.00586273
-0.000462457
-0.0056247
-0.000461707
-0.00538733
-0.000460292
-0.0051506
-0.000456992
-0.00491515
-0.000457176
-0.00468095
-0.000454832
-0.00444827
-0.000452159
-0.0042172
-0.000448807
-0.00398795
-0.000444228
-0.00376093
-0.000441436
-0.0035362
-0.000437192
-0.00331389
-0.000432379
-0.003094
-0.000425378
-0.00287727
-0.000422904
-0.00266344
-0.000416351
-0.00245272
-0.000410563
-0.00224529
-0.000404026
-0.0020413
-0.000397648
-0.00184085
-0.000390529
-0.00164409
-0.00038365
-0.00145117
-0.000376097
-0.00126208
-0.000368827
-0.00107663
-0.000358387
-0.00089587
-0.000355831
-0.000718999
-0.000345446
-0.000546229
-0.000337698
-0.000377787
-0.000329426
-0.000213642
-0.000321048
-5.38153e-05
-0.000312448
0.000101998
-0.000301276
0.000252612
-0.000297655
0.000399124
-0.000286345
0.000541296
-0.00027795
0.000679094
-0.000269299
0.000812544
-0.00026058
0.000941776
-0.00025231
0.00106683
-0.000243762
0.0011875
-0.000235798
0.0013041
-0.000227753
0.00141654
-0.000219825
0.00152498
-0.000211645
0.00162884
-0.000203445
0.00172936
-0.000196002
0.00182599
-0.000188534
0.00191918
-0.00017986
0.00200829
-0.000175725
0.00209425
-0.000166382
0.00217645
-0.00016185
0.00225536
-0.000153218
0.00233103
-0.000146706
0.00240353
-0.000140427
0.00247221
-0.000136066
0.00253855
-0.000128367
0.00260176
-0.000124301
0.00266227
-0.000117617
0.00272018
-0.000112616
0.00277558
-0.000107002
0.00282792
-0.000101079
0.00287787
-9.62535e-05
0.00292547
-9.17311e-05
0.00297064
-8.83433e-05
0.00301344
-8.28722e-05
0.00305446
-7.88515e-05
0.00309334
-7.51605e-05
0.00313027
-7.09645e-05
0.00316526
-6.70819e-05
0.00319848
-6.33297e-05
0.0032299
-5.99057e-05
0.00325966
-5.66015e-05
0.00328781
-5.34356e-05
0.00331441
-5.04145e-05
0.00333944
-4.71866e-05
0.00336315
-4.45632e-05
0.00338556
-4.19475e-05
0.00340658
-3.99322e-05
0.00342655
-3.81441e-05
0.00344539
-3.54855e-05
0.00346289
-3.23816e-05
0.00347913
-3.04997e-05
0.00349445
-2.84743e-05
0.00350885
-2.634e-05
0.00352226
-2.43172e-05
0.00353485
-2.25876e-05
0.00354656
-2.10331e-05
0.00355743
-1.93654e-05
0.00356758
-1.77702e-05
0.00357694
-1.64622e-05
0.00358567
-1.49781e-05
0.00359373
-1.37226e-05
0.00360114
-1.24509e-05
0.00360795
-1.12758e-05
0.00361415
-1.01772e-05
0.00361986
-9.07741e-06
0.00362505
-8.17397e-06
0.0036297
-7.22709e-06
0.00363412
-6.89198e-06
0.00363804
-5.99089e-06
0.00364143
-4.31088e-06
0.00364429
-3.39112e-06
0.00364679
-2.77029e-06
0.00364899
-2.23059e-06
0.00365087
-1.55389e-06
0.00365241
-9.98392e-07
0.00365367
-3.41335e-07
0.00365463
2.77442e-07
0.00365531
8.90275e-07
0.00365572
1.4092e-06
0.00365587
1.94714e-06
0.00365579
2.38012e-06
0.00365548
2.85645e-06
0.0036549
3.32111e-06
0.00365417
3.7754e-06
0.00365322
4.14396e-06
0.003652
4.70925e-06
0.00365064
4.9557e-06
0.00364919
4.83424e-06
0.00364762
5.14836e-06
0.00364581
6.5262e-06
0.00364312
7.03462e-06
0.00364127
7.62737e-06
0.00363678
6.26073e-06
0.00363702
1.73765e-05
0.00362339
1.39783e-05
0.00362408
-3.80389e-06
0.00361555
-5.29171e-05
0.00360701
-5.56748e-05
0.00361934
-6.37194e-06
0.00361831
1.44361e-05
0.00361004
3.07636e-05
0.00360464
2.61474e-05
0.00358912
2.73015e-05
0.00360045
7.1194e-05
0.00358456
7.01645e-05
0.00357582
4.02813e-05
0.00356079
-3.58325e-05
0.0035542
-1.04618e-05
0.00355198
-3.8871e-06
0.00355391
7.60509e-06
0.00354211
-7.42924e-05
0.00354173
-0.000121419
0.00356438
-4.88958e-05
0.00357089
6.20218e-06
0.00357266
2.34597e-05
0.00355638
3.99406e-05
0.0035535
6.7691e-06
0.00355296
-4.03781e-05
0.00356127
-3.587e-05
0.00356301
-3.50894e-06
0.00356098
5.34779e-06
0.00356296
-8.72765e-06
0.00356235
-1.03104e-05
0.00356598
-1.24786e-06
0.00356736
-1.49044e-07
0.00356774
3.38552e-06
0.00356664
5.30764e-06
0.00356501
4.41312e-06
0.00356262
6.43612e-06
0.00355849
1.12403e-05
0.00355391
1.16231e-05
0.00354897
1.14566e-05
0.00354417
1.12174e-05
0.0035394
1.10945e-05
0.00353468
1.10304e-05
0.00352993
1.1052e-05
0.00352524
1.09459e-05
0.00352054
1.09658e-05
0.00351591
1.08325e-05
0.00351126
1.0844e-05
0.00350664
1.07461e-05
0.00350204
1.07477e-05
0.00349747
1.06476e-05
0.00349293
1.06214e-05
0.0034884
1.05961e-05
0.00348388
1.05788e-05
0.0034793
1.06193e-05
0.00347535
8.38777e-06
0.00347166
8.58331e-06
0.00346703
1.17365e-05
0.00346216
1.16819e-05
0.00345734
1.11048e-05
0.00345267
1.0807e-05
0.00344805
1.06723e-05
0.00344349
1.05926e-05
0.0034389
1.06079e-05
0.00343435
1.0509e-05
0.00342981
1.05091e-05
0.0034253
1.03627e-05
0.00342081
1.03911e-05
0.00341637
1.02722e-05
0.00341191
1.02442e-05
0.0034075
1.01408e-05
0.00340312
1.0112e-05
0.00339876
1.00526e-05
0.00339442
1.00238e-05
0.00339002
9.98917e-06
0.00338618
8.14811e-06
0.00338262
8.12174e-06
0.00337831
1.07292e-05
0.00337377
1.06979e-05
0.00336927
1.02783e-05
0.00336489
9.92669e-06
0.0033606
9.81238e-06
0.00335636
9.67587e-06
0.00335211
9.70048e-06
0.00334791
9.55031e-06
0.00334372
9.56431e-06
0.00333958
9.40967e-06
0.00333543
9.44934e-06
0.00333132
9.29386e-06
0.00332722
9.31908e-06
0.00332315
9.17998e-06
0.00331911
9.19619e-06
0.00331511
9.09437e-06
0.0033111
9.12186e-06
0.00330704
9.03948e-06
0.00330344
7.53343e-06
0.0033001
7.46428e-06
0.00329615
9.67561e-06
0.00329196
9.7112e-06
0.00328779
9.38936e-06
0.00328373
9.04893e-06
0.00327973
9.01566e-06
0.00327578
8.87894e-06
0.0032718
8.94056e-06
0.00326787
8.79125e-06
0.00326393
8.83885e-06
0.00326004
8.67035e-06
0.00325616
8.72283e-06
0.00325233
8.55624e-06
0.00324848
8.59614e-06
0.00324467
8.44819e-06
0.00324089
8.50671e-06
0.00323712
8.39445e-06
0.00323335
8.47143e-06
0.00322954
8.34321e-06
0.00322613
7.07502e-06
0.00322296
6.98266e-06
0.00321927
8.94463e-06
0.00321533
8.93084e-06
0.00321142
8.7121e-06
0.00320759
8.36807e-06