/*--------------------------------*- C++ -*----------------------------------*\
  =========                 |
  \\      /  F ield         | OpenFOAM: The Open Source CFD Toolbox
   \\    /   O peration     | Website:  https://openfoam.org
    \\  /    A nd           | Version:  9
     \\/     M anipulation  |
\*---------------------------------------------------------------------------*/
FoamFile
{
    format      ascii;
    class       volScalarField::Internal;
    location    "489";
    object      tmp<kEpsilon:G>;
}
// * * * * * * * * * * * * * * * * * * * * * * * * * * * * * * * * * * * * * //

dimensions      [0 2 -3 0 0 0 0];

value           nonuniform List<scalar> 
203528
(
0
0
0
0
0
0
0
0
0
0
0
5.54818
6.6941
8.18418
9.79771
11.5591
13.4514
15.4856
17.6398
19.9363
22.3441
24.8939
27.5477
30.345
33.2382
36.2768
39.4106
42.6658
46.037
49.5212
53.1129
56.8096
60.648
64.5517
68.5809
72.712
76.9549
81.2959
85.7504
90.303
94.9552
99.6971
104.587
109.506
114.601
119.725
124.975
130.309
135.797
141.299
146.933
152.649
158.462
164.347
170.385
176.408
182.63
188.841
195.184
201.58
208.06
214.691
221.308
228.087
234.842
241.772
248.671
255.681
262.761
269.905
277.117
284.373
291.676
299.119
306.499
313.968
321.494
329.051
336.654
344.368
351.997
359.709
367.454
375.202
382.988
390.779
398.582
406.407
414.261
422.099
429.945
437.779
445.61
453.416
461.227
469.015
476.788
484.522
492.247
499.901
507.638
515.152
522.716
530.207
537.659
545.013
552.425
559.591
566.865
573.897
580.931
587.855
594.718
601.442
608.104
614.695
621.078
627.438
633.59
639.649
645.604
651.389
657.073
662.57
667.953
673.187
678.211
683.074
687.807
692.353
696.693
700.838
704.825
708.575
712.16
715.482
718.638
721.538
724.254
726.699
728.944
730.902
732.653
734.117
735.335
736.241
736.934
737.266
737.435
737.194
736.786
736.03
734.94
733.641
732.108
730.089
728.026
725.567
722.901
719.824
716.25
712.597
708.695
704.09
699.35
694.35
689.09
683.522
677.514
671.345
664.839
658.058
650.814
643.43
635.725
627.752
619.328
610.808
601.98
592.84
583.476
573.823
563.932
553.796
543.456
532.934
522.016
511.133
499.827
488.51
476.988
465.283
453.517
441.42
429.449
417.149
404.949
392.618
380.242
367.818
355.375
342.924
330.492
318.081
305.729
293.435
281.245
269.143
257.161
245.308
233.64
222.077
210.753
199.622
188.708
178.015
167.558
157.37
147.453
137.802
128.447
119.371
110.614
102.158
94.0196
86.1765
78.676
71.4888
64.6223
58.0755
51.8497
45.936
40.3377
35.0431
30.0582
25.3476
20.9441
16.8244
12.9634
9.37423
6.03427
2.94801
0.1123
2.56415
5.01297
7.2986
9.40804
11.3562
13.1476
14.7927
16.2891
17.6568
18.8929
20.0114
21.0136
21.9081
22.6976
23.3995
24.0104
24.5361
24.9883
25.3656
25.6752
25.9304
26.1237
26.2605
26.3529
26.402
26.407
26.3915
26.3216
26.2289
26.1059
25.9649
25.7949
25.609
25.4032
25.1855
24.9493
24.7062
24.4478
24.1862
23.9116
23.6363
23.3501
23.0638
22.77
22.4803
22.1827
21.8982
21.5957
21.3001
21.0011
20.7089
20.4168
20.1283
19.8404
19.5579
19.2749
18.9995
18.723
18.4551
18.1872
17.927
17.6679
17.4151
17.1641
16.9209
16.6783
16.4516
16.2142
15.9857
15.7598
15.5412
15.3252
15.1143
14.9061
14.7039
14.5038
14.3098
14.1163
13.9287
13.7416
13.5604
13.3806
13.2059
13.0325
12.8659
12.7002
12.5471
12.3826
12.2253
12.0728
11.9084
11.8115
11.4497
12.6387
12.9099
12.4205
11.5651
0
0
0
0
0
0
0
10.9818
11.3214
11.3114
11.1719
10.9666
11.6579
11.8361
0
0
0
0
0
0
0
0
0
0
0
0
0
0
0
0
0
0
0
0
0
0
0
0
0
0
0
0
0
0
0
0
0
0
0
0
0
0
0
0
0
0
0
0
0
0
0
0
0
0
0
0
0
0
0
0
0
0
0
0
0
0
0
0
0
0
0
0
0
0
0
0
0
0
0
0
0
0
0
0
0
0
0
0
0
0
0
0
0
0
0
0
0
0
0
0
0
0
0
0
0
0
0
0
0
0
0
0
0
0
0
0
0
0
0
0
0
0
0
0
0
0
0
0
0
0
0
0
0
0
0
0
0
0
0
0
0
0
0
0
0
0
0
0
0
0
0
0
0
0
0
0
0
0
0
0
0
0
0
0
0
0
0
0
0
0
0
0
0
0
0
0
0
0
0
0
0
0
0
0
0
0
0
0
0
0
0
0
0
0
0
0
0
0
0
0
0
0
0
0
0
0
0
0
0
0
0
0
0
0
0
0
0
0
0
0
0
0
0
0
0
0
0
0
0
0
0
0
0
0
0
0
0
0
0
0
0
0
0
0
0
0
0
0
0
0
0
0
0
0
0
0
0
0
0
0
0
0
0
0
0
0
0
0
0
0
0
0
0
0
0
0
0
0
0
0
0
0
0
0
0
0
0
0
0
0
0
0
0
0
0
0
0
0
0
0
0
0
0
0
0
0
0
0
0
0
0
0
0
0
0
0
0
0
0
0
0
0
0
0
0
0
0
0
0
0
0
0
0
0
0
0
0
0
0
0
0
0
0
0
0
0
0
0
0
0
0
0
0
0
0
0
0
0
0
0
0
0
0
0
0
0
0
0
0
0
0
0
0
0
0
0
0
0
0
0
0
0
0
0
0
0
0
0
0
0
0
0
0
0
0
0
0
0
0
0
0
0
0
0
0
0
0
0
0
0
0
0
0
0
0
0
0
0
0
0
0
0
0
0
0
0
0
0
0
0
0
0
0
0
0
0
0
0
0
0
0
0
0
0
0
0
0
0
0
0
0.00426404
0.000458077
0.00113844
0.00921626
0.036218
0.0695243
0.102183
0.143925
0.216204
0.292126
0.347565
0.371692
0.453835
0.569693
0.69968
0.841593
0.993847
1.15797
1.33698
1.52613
1.73125
1.94479
2.17457
2.41217
2.66609
2.92598
3.20335
3.49027
3.78595
4.09509
4.41582
4.74577
5.07764
5.43831
5.79707
6.17179
6.55139
6.94749
7.34604
7.7617
8.18672
8.62281
9.05607
9.52288
9.9698
10.4598
10.9414
11.4353
11.92
12.4522
12.9691
13.5077
14.0494
14.6048
15.1508
15.7428
16.2987
16.9101
17.5026
18.1302
18.7417
19.3562
19.9967
20.6338
21.2958
21.947
22.6317
23.3174
23.9966
24.6976
25.3924
26.1193
26.8297
27.5378
28.283
29.0334
29.7707
30.5347
31.2763
32.0214
32.8024
33.5841
34.3508
35.1468
35.9227
36.7244
37.5108
38.316
39.0955
39.9075
40.6972
41.5125
42.3049
43.1245
43.9107
44.7251
45.5133
46.3291
47.1132
47.9172
48.6572
49.4857
50.2454
51.0332
51.789
52.5642
53.2725
54.0535
54.7369
55.499
56.1884
56.9009
57.5634
58.2587
58.8859
59.5226
60.142
60.7443
61.332
61.9184
62.4441
62.9919
63.4733
63.9773
64.4046
64.8386
65.2374
65.6397
65.9596
66.2907
66.5715
66.8552
67.0596
67.275
67.4146
67.5751
67.6489
67.7328
67.7338
67.7469
67.6758
67.6156
67.471
67.3403
67.1563
67.0175
66.7919
66.577
66.2776
65.9847
65.6085
65.2343
64.7802
64.3296
63.7982
63.2708
62.6641
62.0574
61.3736
60.7025
59.9395
59.1872
58.3696
57.5492
56.6575
55.7767
54.8213
53.8745
52.8681
51.875
50.8079
49.7569
48.6477
47.5572
46.4024
45.2698
44.0909
42.9345
41.719
40.5328
39.3014
38.097
36.8585
35.6466
34.4004
33.1796
31.937
30.731
29.4997
28.3086
27.092
25.9204
24.7322
23.5903
22.4411
21.3341
20.2287
19.1573
18.094
17.0729
16.0619
15.0956
14.1414
13.234
12.3421
11.4977
10.6687
9.88529
9.1245
8.40901
7.71482
7.06694
6.44447
5.86056
5.30291
4.78824
4.29995
3.84915
3.42279
3.03327
2.66871
2.33899
2.0326
1.75583
1.50232
1.27777
1.07392
0.893565
0.733571
0.594782
0.473729
0.371215
0.284363
0.213155
0.15552
0.111377
0.0787086
0.0565277
0.044258
0.0405792
0.0446459
0.0557885
0.0722019
0.0944085
0.121977
0.153389
0.188857
0.227707
0.269251
0.31124
0.357114
0.40482
0.45371
0.503525
0.55593
0.608125
0.658972
0.708476
0.758772
0.808535
0.857051
0.905685
0.952546
0.997749
1.04434
1.0889
1.1311
1.17213
1.21158
1.23933
1.28035
1.31786
1.35182
1.38466
1.41727
1.44624
1.47379
1.50011
1.52539
1.54934
1.57166
1.5931
1.61304
1.63202
1.6508
1.66691
1.68219
1.69684
1.71109
1.71295
1.72919
1.74336
1.75476
1.76413
1.77364
1.78038
1.78737
1.79376
1.79939
1.80492
1.80948
1.8134
1.8168
1.82009
1.82376
1.82495
1.82676
1.82857
1.83013
1.82151
1.82603
1.82927
1.83055
1.83088
1.83176
1.83051
1.83009
1.82928
1.8283
1.82729
1.82598
1.82452
1.82265
1.82124
1.82009
1.81652
1.81479
1.81259
1.81006
1.79903
1.80053
1.80271
1.80082
1.80793
1.80596
1.86627
1.53972
1.42046
1.64511
1.62716
1.56737
1.57137
1.57116
1.6654
1.63743
1.63817
1.90992
1.40866
1.37086
1.40554
1.39403
1.38752
1.65766
1.38298
1.50396
1.35316
1.49064
1.45114
1.21395
1.07959
1.06317
1.08669
1.04597
1.01822
1.02279
1.01905
1.02415
1.03334
1.04071
1.02289
1.0444
1.0569
1.0647
1.07161
1.07838
1.08415
1.09047
1.09665
1.10272
1.10868
1.11457
1.12046
1.12627
1.13202
1.13804
1.14319
1.14873
1.15425
1.15961
1.14517
1.16271
1.17437
1.18125
1.18668
1.1922
1.19668
1.2018
1.20677
1.21168
1.21651
1.22131
1.22595
1.23055
1.23512
1.23993
1.2438
1.24812
1.25253
1.25665
1.24413
1.25809
1.26765
1.27313
1.27724
1.28152
1.28463
1.28848
1.2921
1.29572
1.29922
1.30268
1.30608
1.30943
1.31272
1.31633
1.31891
1.32196
1.32518
1.32806
1.31657
1.32788
1.33557
1.33979
1.34272
1.34587
1.34781
1.35056
1.35303
1.35556
1.35795
1.36034
1.36263
1.36489
1.36715
1.36972
1.37127
1.3733
1.37544
1.37739
1.3664
1.37586
1.38204
1.38517
1.38708
1.38929
1.39027
1.39205
1.3936
1.3952
1.39668
1.39821
1.39959
1.40102
1.40237
1.40406
1.40473
1.40596
1.40725
1.4085
1.39777
1.40569
1.4107
1.41293
1.41405
1.41548
1.41564
1.41669
1.41745
1.41833
1.41903
1.41981
1.42051
1.42117
1.42187
1.42292
1.42285
1.42347
1.42402
1.42473
1.41421
1.42086
1.42499
1.42657
1.42705
1.42791
1.42747
1.42794
1.42817
1.42849
1.42867
1.42894
1.42912
1.42929
1.42948
1.43004
1.42949
1.42967
1.42971
1.43009
1.41986
1.42556
1.42901
1.43011
1.43018
1.43063
1.4298
1.42989
1.42969
1.42962
1.42943
1.4293
1.4291
1.42893
1.42873
1.42896
1.42805
1.42792
1.42759
1.42767
1.41779
1.42273
1.42566
1.42641
1.42617
1.42634
1.42522
1.425
1.42451
1.42416
1.42362
1.42323
1.42275
1.42242
1.42213
1.4222
1.42119
1.42093
1.42049
1.42046
1.41097
1.41547
1.41816
1.41872
1.41845
1.41855
1.41742
1.41722
1.41671
1.41635
1.41587
1.41551
1.41507
1.41468
1.41425
1.41428
1.41316
1.41285
1.41227
1.4122
1.40301
1.40716
1.40958
1.41005
1.40962
1.40959
1.40829
1.40789
1.40722
1.4067
1.40605
1.40551
1.40487
1.4043
1.40369
1.40356
1.40228
1.40183
1.4011
1.40093
1.39208
1.39584
1.39801
1.39837
1.39786
1.39781
1.39648
1.39606
1.39536
1.39482
1.39416
1.39362
1.39298
1.39244
1.39183
1.39175
1.39043
1.39007
1.38934
1.38916
1.38065
1.38421
1.38623
1.38658
1.38599
1.38594
1.38454
1.38405
1.38322
1.38251
1.3817
1.38111
1.38016
1.37919
1.37821
1.37771
1.37598
1.37503
1.37376
1.37289
1.36416
1.36702
1.36826
1.36798
1.36691
1.36632
1.36457
1.3639
1.36288
1.36214
1.36132
1.36066
1.36001
1.35948
1.35883
1.35884
1.35762
1.35738
1.35676
1.35671
1.34912
1.35229
1.35427
1.35475
1.35422
1.35439
1.35318
1.35295
1.35237
1.35199
1.3515
1.35112
1.35054
1.35022
1.34972
1.34988
1.34868
1.34861
1.3481
1.34822
1.34091
1.34421
1.34628
1.34689
1.34655
1.34701
1.34604
1.3461
1.34588
1.34585
1.34567
1.3457
1.34547
1.34561
1.34552
1.34599
1.3453
1.34557
1.34553
1.34602
1.33954
1.34309
1.34554
1.34652
1.34677
1.34749
1.34703
1.34766
1.34779
1.34797
1.34785
1.34815
1.3483
1.34846
1.34857
1.34922
1.34846
1.34863
1.34847
1.34841
1.34222
1.34504
1.34722
1.34719
1.34638
1.34595
1.34384
1.34335
1.34225
1.34093
1.33859
1.33687
1.33397
1.33206
1.32948
1.32693
1.3233
1.31937
1.31527
1.31131
1.30095
1.29862
1.29483
1.28948
1.28315
1.27689
1.26889
1.26109
1.25228
1.24289
1.23275
1.22181
1.21018
1.19775
1.18435
1.17005
1.15406
1.13775
1.12005
1.10144
1.07775
1.05936
1.03761
1.01359
0.987554
0.959806
0.929589
0.898688
0.86576
0.830973
0.794053
0.755315
0.714367
0.67164
0.627106
0.580903
0.532379
0.483241
0.433587
0.383515
0.334639
0.28719
0.240867
0.197204
0.157748
0.121955
0.0912227
0.0657947
0.0455039
0.0297562
0.0182548
0.0102617
0.00509696
0.00204973
0.000623227
0.000354466
0.000961848
0.00224754
0.00413865
0.00664683
0.00976521
0.0133437
0.01691
0.0196071
0.0205829
0.0194746
0.0163765
0.0118649
0.00691443
0.0025906
0.000174836
0.00494819
0.00235558
0.0052636
0.0193034
0.0506051
0.0771553
0.10268
0.106944
0.134824
0.154767
0.15258
0.175879
0.213962
0.249885
0.293374
0.339586
0.38798
0.440143
0.496095
0.555725
0.619074
0.686118
0.756803
0.831145
0.908839
0.990354
1.07505
1.16315
1.25417
1.34945
1.44747
1.54763
1.65244
1.76073
1.87093
1.98473
2.10135
2.2213
2.34362
2.47045
2.59957
2.73074
2.8664
3.00331
3.14475
3.28951
3.43501
3.58255
3.73576
3.89162
4.04923
4.21104
4.37385
4.53934
4.70951
4.87975
5.05534
5.23253
5.41322
5.59617
5.77834
5.96692
6.15474
6.34949
6.54173
6.74375
6.94207
7.14569
7.34846
7.55572
7.7645
7.976
8.18611
8.40472
8.61907
8.83973
9.05928
9.28056
9.5013
9.73091
9.95471
10.1845
10.4121
10.6441
10.875
11.109
11.3405
11.5742
11.8064
12.0422
12.2756
12.5122
12.747
12.983
13.2161
13.4514
13.6836
13.9185
14.1477
14.3779
14.6113
14.8382
15.0635
15.289
15.5087
15.7276
15.9463
16.157
16.3723
16.5799
16.7833
16.9842
17.1799
17.3715
17.5569
17.7439
17.9174
18.096
18.2587
18.4214
18.5739
18.7232
18.8634
18.9984
19.1242
19.2486
19.3577
19.462
19.5549
19.6445
19.7194
19.7901
19.8487
19.9007
19.9402
19.9713
19.9898
20.0006
19.9982
19.9887
19.9666
19.936
19.8918
19.8429
19.7803
19.7033
19.6099
19.512
19.3978
19.2769
19.1416
18.9937
18.8362
18.6691
18.4854
18.2972
18.0948
17.8813
17.6563
17.4268
17.1803
16.928
16.6679
16.3981
16.1176
15.832
15.5349
15.2295
14.9217
14.6101
14.284
13.9541
13.6204
13.2862
12.939
12.5912
12.2434
11.8963
11.5362
11.1825
10.8227
10.4661
10.1077
9.75216
9.39445
9.03686
8.68542
8.33774
7.98948
7.65186
7.30791
6.97748
6.64381
6.32519
6.00774
5.69938
5.3985
5.10033
4.81154
4.53122
4.25842
3.99575
3.7398
3.49521
3.25774
3.0321
2.81287
2.60472
2.40527
2.21703
2.03587
1.86682
1.70633
1.55399
1.41068
1.27809
1.15361
1.03841
0.929936
0.830947
0.739009
0.655952
0.579314
0.509806
0.446885
0.391173
0.341057
0.296432
0.257619
0.22379
0.194767
0.17022
0.149847
0.133227
0.120379
0.110463
0.10384
0.099747
0.0981972
0.0987753
0.101226
0.105791
0.110971
0.118055
0.126878
0.136536
0.147434
0.159347
0.17206
0.186218
0.201538
0.216163
0.23067
0.245515
0.259426
0.273617
0.291275
0.307564
0.322901
0.338569
0.353827
0.369329
0.383675
0.398946
0.413147
0.426419
0.440011
0.4531
0.465647
0.47752
0.491611
0.503952
0.514918
0.525583
0.534803
0.544263
0.554674
0.564145
0.572603
0.580888
0.588663
0.596267
0.603161
0.61052
0.616162
0.622224
0.627862
0.633224
0.638542
0.641902
0.646852
0.652114
0.656669
0.660427
0.66306
0.66655
0.67004
0.672936
0.675499
0.678145
0.680434
0.682505
0.684351
0.686519
0.687415
0.689366
0.690798
0.692262
0.693578
0.693213
0.693993
0.695682
0.697072
0.698063
0.6981
0.699233
0.700105
0.700368
0.700717
0.701162
0.701433
0.701748
0.701816
0.702353
0.701633
0.702124
0.702402
0.702577
0.702748
0.701439
0.700756
0.702363
0.702983
0.708156
0.709601
0.714081
0.607627
0.53803
0.852269
0.845719
0.812284
0.8182
0.832562
0.879538
0.880893
0.723419
0.746599
0.562979
0.543871
0.537003
0.517062
0.477705
0.887117
0.829069
0.779314
0.77495
0.771114
0.811394
0.759064
0.68584
0.65823
0.656007
0.632519
0.608919
0.596603
0.583805
0.578399
0.576885
0.57825
0.569739
0.573068
0.578306
0.582241
0.585606
0.588242
0.591317
0.594128
0.596682
0.599313
0.601924
0.604434
0.607034
0.609541
0.612162
0.614152
0.616949
0.61934
0.621652
0.625034
0.620238
0.623385
0.628499
0.632393
0.635297
0.637498
0.64018
0.642589
0.644742
0.646997
0.649283
0.651495
0.653704
0.655844
0.658141
0.659712
0.662182
0.66422
0.666287
0.669185
0.665536
0.667739
0.671938
0.675257
0.677751
0.679546
0.681841
0.683887
0.685614
0.687446
0.689307
0.691055
0.692873
0.694603
0.696492
0.697611
0.699672
0.701248
0.70292
0.705289
0.702154
0.703685
0.707063
0.709815
0.711858
0.713191
0.715072
0.71672
0.71803
0.719462
0.720926
0.722293
0.723711
0.725013
0.726531
0.727225
0.728898
0.730103
0.731353
0.733308
0.730336
0.731417
0.734159
0.736399
0.738004
0.738931
0.740436
0.741695
0.742627
0.743662
0.744734
0.745741
0.746767
0.747707
0.748839
0.749145
0.750438
0.751283
0.752171
0.753762
0.750847
0.751527
0.753725
0.755502
0.756749
0.757308
0.758429
0.75934
0.759899
0.760589
0.761301
0.761931
0.76264
0.763197
0.76403
0.764023
0.764944
0.765496
0.766025
0.767296
0.764379
0.764644
0.766399
0.767808
0.768702
0.768947
0.769734
0.770322
0.770599
0.770963
0.771377
0.771709
0.772117
0.772383
0.772922
0.772625
0.773262
0.773543
0.773764
0.774783
0.771865
0.771816
0.773192
0.774268
0.774916
0.774898
0.775448
0.775799
0.77584
0.775953
0.776162
0.77625
0.776442
0.776505
0.776816
0.776329
0.776732
0.776832
0.776832
0.777623
0.774776
0.774468
0.775573
0.776414
0.776864
0.776684
0.777062
0.777238
0.777153
0.777174
0.777319
0.777356
0.77758
0.777746
0.778145
0.777603
0.777803
0.777659
0.777365
0.777807
0.774899
0.774288
0.775143
0.775776
0.776166
0.775943
0.776327
0.776526
0.776361
0.776199
0.776106
0.775884
0.775756
0.775503
0.775505
0.77473
0.774824
0.774637
0.774358
0.774839
0.772105
0.771488
0.772243
0.772765
0.772989
0.772575
0.772732
0.772696
0.7724
0.772154
0.772031
0.771797
0.771683
0.771435
0.771449
0.770703
0.770809
0.770644
0.770373
0.770848
0.768296
0.767645
0.768334
0.7688
0.769013
0.768597
0.768746
0.768704
0.768403
0.76814
0.767982
0.767715
0.767578
0.767303
0.767282
0.766523
0.766515
0.766337
0.766003
0.766362
0.763845
0.763097
0.763603
0.763943
0.763986
0.763484
0.763418
0.763249
0.762696
0.762176
0.761767
0.761346
0.760822
0.760007
0.759485
0.758383
0.758023
0.757387
0.756721
0.756659
0.753902
0.753001
0.753422
0.753636
0.75375
0.753315
0.753542
0.753596
0.753424
0.753285
0.753256
0.753079
0.753071
0.752885
0.752922
0.752232
0.752306
0.752133
0.751853
0.752178
0.749989
0.749222
0.749672
0.750085
0.75015
0.749695
0.749762
0.749697
0.749385
0.749098
0.748939
0.748717
0.748586
0.748359
0.748355
0.747752
0.747776
0.747776
0.747516
0.748088
0.746141
0.745564
0.746162
0.746794
0.747079
0.746846
0.747135
0.74731
0.747299
0.747284
0.747402
0.747506
0.747561
0.747723
0.747856
0.747594
0.748009
0.748177
0.748302
0.748992
0.747493
0.747187
0.748154
0.748872
0.749487
0.749482
0.750074
0.750395
0.750867
0.751201
0.751299
0.75144
0.75174
0.75187
0.752345
0.751862
0.752431
0.752591
0.752575
0.752771
0.751274
0.750653
0.751493
0.752014
0.751961
0.751259
0.750598
0.750385
0.75009
0.74969
0.748303
0.747378
0.745727
0.744926
0.744176
0.742262
0.741313
0.739418
0.737528
0.735958
0.732147
0.728796
0.726311
0.723588
0.720604
0.717179
0.714128
0.710195
0.705616
0.700662
0.695428
0.68981
0.683687
0.677106
0.670162
0.662372
0.65482
0.646288
0.637569
0.628067
0.616005
0.604524
0.593264
0.581056
0.56792
0.553729
0.539082
0.522668
0.50543
0.487658
0.468832
0.449041
0.428033
0.405985
0.382689
0.358006
0.333238
0.307256
0.279869
0.252139
0.22306
0.194466
0.166786
0.140327
0.115564
0.0924543
0.0718671
0.0538062
0.0390156
0.0271769
0.0181343
0.0115025
0.00690127
0.00377462
0.00182864
0.000752522
0.000318398
0.000360968
0.000793338
0.0015259
0.00250308
0.00356264
0.00449809
0.00511967
0.0053162
0.00514856
0.00481498
0.00452505
0.00418854
0.00302575
0.00051682
0.00490988
0.00448376
0.0104864
0.0301921
0.0618953
0.0866392
0.110725
0.107594
0.126918
0.135637
0.138104
0.162638
0.187776
0.208703
0.232326
0.256721
0.282598
0.309762
0.338907
0.369337
0.401648
0.435292
0.470929
0.507845
0.546112
0.58637
0.627762
0.671055
0.715558
0.762073
0.809389
0.858521
0.90908
0.961097
1.01436
1.06917
1.12512
1.18268
1.2413
1.30204
1.36322
1.42658
1.49041
1.55589
1.62299
1.69099
1.75967
1.83039
1.90217
1.97506
2.04953
2.12555
2.20135
2.27993
2.35831
2.4384
2.52011
2.60201
2.68607
2.7702
2.8556
2.94203
3.0288
3.11803
3.20676
3.29964
3.38959
3.48379
3.57617
3.67104
3.76566
3.86127
3.95792
4.05641
4.15201
4.25254
4.3508
4.45025
4.55078
4.65296
4.75179
4.85541
4.95605
5.05957
5.16193
5.26571
5.36782
5.47134
5.57294
5.67659
5.77853
5.88242
5.98457
6.08786
6.18886
6.29106
6.39084
6.49256
6.58989
6.69097
6.78974
6.88619
6.9826
7.07833
7.16994
7.26399
7.35378
7.44302
7.53259
7.61834
7.70268
7.78583
7.865
7.94322
8.01897
8.09369
8.16306
8.23496
8.29758
8.36245
8.42031
8.47813
8.53018
8.58103
8.62777
8.67338
8.71047
8.74736
8.77789
8.80697
8.82837
8.84999
8.86459
8.8774
8.88276
8.88588
8.88233
8.8764
8.86313
8.84833
8.82708
8.80341
8.77267
8.74064
8.70058
8.6558
8.60219
8.5493
8.48766
8.4248
8.35552
8.27972
8.20072
8.11927
8.02755
7.93726
7.84025
7.73838
7.63176
7.52445
7.40934
7.29321
7.1735
7.05081
6.92282
6.79441
6.66124
6.52368
6.38718
6.2513
6.10739
5.9622
5.81672
5.6738
5.52282
5.37227
5.22349
5.07742
4.9228
4.77422
4.62226
4.47292
4.32283
4.1751
4.02663
3.87776
3.73407
3.59194
3.44838
3.31302
3.17126
3.03841
2.90181
2.77439
2.64699
2.52277
2.40381
2.28322
2.16849
2.05654
1.94805
1.84368
1.74177
1.64464
1.55002
1.46031
1.37277
1.28954
1.20974
1.13416
1.0609
0.992571
0.927364
0.864498
0.805275
0.750046
0.697692
0.648746
0.60187
0.558738
0.518058
0.480683
0.445532
0.412903
0.382979
0.355544
0.330205
0.306819
0.286018
0.266836
0.249772
0.234339
0.220788
0.208598
0.198426
0.18906
0.181364
0.174957
0.169781
0.165565
0.162238
0.160334
0.158326
0.157401
0.157814
0.158727
0.16043
0.162941
0.166056
0.168509
0.171952
0.176707
0.183387
0.190038
0.196024
0.202548
0.207595
0.213213
0.220989
0.227811
0.234531
0.241117
0.248695
0.255096
0.261182
0.267971
0.274043
0.281742
0.289032
0.292646
0.297688
0.303906
0.310559
0.316638
0.321942
0.327216
0.331218
0.335869
0.340731
0.344968
0.348973
0.352749
0.356803
0.360165
0.363176
0.3663
0.369057
0.372325
0.375438
0.37631
0.378259
0.380939
0.383723
0.385864
0.387534
0.389205
0.390306
0.39195
0.393301
0.39457
0.395646
0.396601
0.397618
0.398229
0.398995
0.399687
0.400254
0.401052
0.401612
0.401
0.401235
0.401893
0.402615
0.402982
0.403135
0.403351
0.403284
0.403631
0.403585
0.40365
0.403599
0.403585
0.403533
0.403293
0.403267
0.403146
0.403089
0.403029
0.402827
0.401904
0.401625
0.401975
0.401928
0.403524
0.403842
0.39713
0.353934
0.329268
0.514458
0.540279
0.527204
0.524584
0.538111
0.567638
0.570753
0.429292
0.406625
0.324034
0.315002
0.306102
0.293127
0.272451
0.532342
0.575117
0.516562
0.52375
0.505048
0.531157
0.537086
0.506948
0.481065
0.470927
0.457387
0.440955
0.425768
0.410643
0.401874
0.397645
0.396718
0.391672
0.39222
0.394846
0.397415
0.399541
0.401392
0.403181
0.404868
0.406817
0.408395
0.410085
0.411706
0.413403
0.415038
0.4165
0.41819
0.419802
0.421364
0.422857
0.424898
0.422993
0.424344
0.427115
0.429723
0.431688
0.43339
0.435023
0.436543
0.43837
0.439825
0.441423
0.442973
0.444545
0.446086
0.44745
0.449031
0.450562
0.452028
0.453513
0.455363
0.45412
0.455225
0.457572
0.459908
0.461711
0.463281
0.464774
0.466154
0.467828
0.469118
0.470545
0.471903
0.473317
0.474701
0.475882
0.477276
0.478628
0.479879
0.48121
0.482808
0.481809
0.482707
0.484647
0.486683
0.488254
0.489603
0.490892
0.492069
0.493551
0.494655
0.49589
0.497073
0.498293
0.499464
0.500454
0.501637
0.502789
0.503854
0.504971
0.506375
0.505381
0.506119
0.507738
0.509487
0.51081
0.511939
0.513019
0.513975
0.515248
0.516123
0.517128
0.518099
0.519088
0.520053
0.520807
0.521763
0.522688
0.523538
0.524437
0.525635
0.524603
0.525156
0.526461
0.527924
0.529019
0.529915
0.530751
0.531476
0.532502
0.533151
0.533916
0.534643
0.535415
0.536132
0.536682
0.537419
0.538095
0.538746
0.539398
0.540386
0.539277
0.539586
0.540593
0.541795
0.542633
0.543302
0.543898
0.544384
0.54519
0.545599
0.546138
0.546637
0.547178
0.547673
0.548
0.548509
0.548968
0.549412
0.549823
0.550622
0.549423
0.54953
0.55027
0.551223
0.551865
0.552326
0.552739
0.553036
0.55365
0.553866
0.554238
0.554548
0.554916
0.55525
0.555399
0.555747
0.556019
0.556313
0.556545
0.557169
0.555938
0.555866
0.556406
0.557168
0.55764
0.557955
0.558222
0.55836
0.558845
0.558969
0.559266
0.559531
0.559907
0.560336
0.56057
0.560835
0.560877
0.560872
0.560778
0.561024
0.559565
0.55917
0.559444
0.55998
0.560366
0.560607
0.560867
0.560991
0.561372
0.56131
0.561354
0.561327
0.56134
0.561335
0.561152
0.561162
0.561115
0.561102
0.561042
0.561365
0.560044
0.559706
0.559954
0.560425
0.560671
0.560753
0.560815
0.560749
0.561017
0.560906
0.560956
0.560961
0.561026
0.561069
0.560939
0.561001
0.560996
0.561027
0.560993
0.561331
0.560108
0.559769
0.559982
0.560413
0.560633
0.560693
0.560736
0.560643
0.560875
0.560727
0.560722
0.560667
0.56068
0.560672
0.560482
0.560491
0.56036
0.560337
0.560219
0.560437
0.559165
0.558725
0.558776
0.559085
0.559149
0.559121
0.558979
0.558768
0.558788
0.55842
0.558216
0.558056
0.557751
0.557294
0.55672
0.556476
0.55611
0.555781
0.555434
0.555376
0.553958
0.553476
0.55358
0.553904
0.55412
0.554241
0.55442
0.554504
0.554892
0.554901
0.555031
0.555076
0.555188
0.555246
0.555089
0.5551
0.555009
0.554943
0.554817
0.554972
0.553806
0.553313
0.553295
0.553596
0.553638
0.553576
0.553485
0.553291
0.553418
0.5532
0.553117
0.553031
0.552992
0.552968
0.552739
0.5528
0.552659
0.552734
0.552621
0.552959
0.551987
0.551672
0.551782
0.552264
0.552492
0.552611
0.55269
0.552676
0.553015
0.552992
0.553103
0.553259
0.553328
0.553594
0.553441
0.553675
0.553836
0.554
0.554173
0.554575
0.553831
0.553669
0.554043
0.554601
0.554998
0.555247
0.555521
0.555561
0.55616
0.556411
0.556517
0.556667
0.556866
0.557049
0.557161
0.557261
0.55745
0.557635
0.557779
0.557729
0.557069
0.556606
0.556943
0.557406
0.55749
0.557329
0.556746
0.556509
0.556684
0.556524
0.555711
0.555195
0.554148
0.55399
0.553427
0.552878
0.552183
0.551241
0.550167
0.549183
0.547291
0.545411
0.543763
0.541954
0.540133
0.538318
0.5364
0.534125
0.531707
0.528482
0.52524
0.521777
0.518035
0.513811
0.50935
0.504912
0.499919
0.494577
0.488837
0.482515
0.475488
0.468683
0.461278
0.453032
0.444165
0.434662
0.424438
0.414107
0.403047
0.39071
0.377987
0.364563
0.350218
0.334404
0.318282
0.301081
0.282388
0.26344
0.242202
0.220313
0.198813
0.177116
0.15439
0.131675
0.110152
0.089505
0.0705788
0.0544803
0.0408409
0.0292923
0.0203966
0.0137058
0.00893772
0.00547022
0.00318501
0.00172196
0.000860608
0.000468822
0.000455451
0.000716755
0.00111118
0.00150118
0.00177804
0.00189145
0.00188304
0.00193515
0.00232667
0.00333611
0.0044635
0.00419017
0.000908103
0.00515446
0.00619354
0.0157177
0.0409681
0.0714157
0.0968287
0.120562
0.124286
0.140881
0.147995
0.148914
0.173023
0.193438
0.208673
0.224858
0.240679
0.257015
0.273646
0.291326
0.309323
0.328354
0.347742
0.368402
0.389425
0.411606
0.434414
0.457574
0.481896
0.506846
0.532785
0.558922
0.5865
0.614492
0.643
0.672565
0.702763
0.733618
0.765231
0.797556
0.830828
0.86413
0.899193
0.93373
0.969582
1.00627
1.04281
1.08016
1.11899
1.15774
1.19671
1.23725
1.27811
1.31875
1.36146
1.40301
1.4461
1.48996
1.5331
1.57818
1.62231
1.66846
1.71359
1.75974
1.80626
1.85335
1.90196
1.94881
1.99849
2.04691
2.09623
2.14547
2.19442
2.24552
2.29573
2.34448
2.39641
2.44681
2.49727
2.54971
2.60093
2.65069
2.70341
2.75412
2.80605
2.85782
2.90951
2.9609
3.01235
3.06288
3.11377
3.1643
3.21512
3.26559
3.31596
3.36562
3.4149
3.46336
3.51225
3.55886
3.60814
3.65524
3.70025
3.74693
3.79151
3.83428
3.87874
3.91988
3.96104
4.00286
4.04106
4.08025
4.11732
4.15277
4.1869
4.2213
4.25281
4.28331
4.31401
4.33999
4.36711
4.39059
4.41345
4.43388
4.45289
4.47127
4.4873
4.49957
4.51146
4.52077
4.52789
4.53198
4.53594
4.53697
4.53629
4.53229
4.5265
4.51833
4.50807
4.49481
4.48027
4.46357
4.44499
4.42373
4.4009
4.37464
4.34556
4.31256
4.2802
4.24412
4.20708
4.1684
4.12434
4.08103
4.03626
3.98576
3.93708
3.88622
3.83167
3.77632
3.72037
3.66165
3.60224
3.54235
3.48065
3.41732
3.35396
3.28942
3.22119
3.15627
3.09224
3.02397
2.95463
2.88708
2.82184
2.75182
2.68203
2.61515
2.55036
2.48026
2.41466
2.34763
2.28206
2.21694
2.15314
2.08936
2.02481
1.96476
1.905
1.84421
1.78918
1.72898
1.67448
1.61728
1.56553
1.51371
1.46247
1.41511
1.3644
1.3181
1.27179
1.2274
1.18422
1.14188
1.10123
1.06128
1.02299
0.985149
0.948547
0.913243
0.878816
0.845015
0.812951
0.781493
0.750001
0.719852
0.690921
0.662643
0.635131
0.607899
0.581971
0.556648
0.532341
0.508478
0.485302
0.46337
0.442035
0.42129
0.401291
0.382636
0.364314
0.347159
0.3306
0.315146
0.300208
0.286792
0.273497
0.261158
0.250031
0.239719
0.230057
0.221055
0.213425
0.205586
0.198509
0.192919
0.187882
0.183565
0.180163
0.177424
0.176348
0.176099
0.174877
0.172517
0.172741
0.174716
0.175278
0.177783
0.179912
0.181801
0.184008
0.186743
0.190817
0.193423
0.195554
0.19913
0.203517
0.208072
0.210565
0.212674
0.216669
0.221576
0.224868
0.227044
0.230482
0.234418
0.237306
0.24061
0.243843
0.246482
0.24898
0.251589
0.254592
0.256717
0.258745
0.260872
0.263255
0.265567
0.266911
0.268315
0.269825
0.271648
0.273201
0.274303
0.275743
0.276996
0.277939
0.278938
0.279933
0.280701
0.281405
0.28205
0.282802
0.283131
0.283568
0.283943
0.284431
0.284797
0.284919
0.285113
0.285008
0.285011
0.285223
0.285291
0.285552
0.285544
0.285538
0.285478
0.285402
0.285296
0.285175
0.284985
0.284884
0.28452
0.284422
0.284134
0.283973
0.283726
0.283379
0.283217
0.282715
0.282193
0.282122
0.281702
0.282458
0.282291
0.275509
0.257101
0.246418
0.350589
0.376527
0.372978
0.371359
0.379998
0.397585
0.401924
0.308919
0.282994
0.239685
0.235009
0.227309
0.218679
0.20543
0.36097
0.416068
0.372446
0.379785
0.363967
0.37595
0.399134
0.395213
0.374612
0.363262
0.356631
0.347115
0.333755
0.319722
0.310464
0.305324
0.303658
0.300402
0.299856
0.301222
0.302935
0.304625
0.305917
0.30724
0.308479
0.309705
0.310948
0.312162
0.313321
0.31454
0.315592
0.316856
0.317961
0.319134
0.320164
0.321179
0.322756
0.322137
0.322574
0.324199
0.325957
0.327597
0.328819
0.330068
0.331241
0.332417
0.333629
0.334827
0.335991
0.337184
0.338215
0.339479
0.340563
0.341748
0.342769
0.343831
0.345335
0.345159
0.345585
0.347009
0.348599
0.350173
0.35135
0.352546
0.353679
0.35479
0.355935
0.357056
0.358132
0.359266
0.360219
0.361407
0.362402
0.363511
0.364422
0.365407
0.366781
0.366753
0.367139
0.368353
0.369752
0.371198
0.372253
0.373337
0.374368
0.375377
0.376432
0.377452
0.378447
0.379487
0.380315
0.381405
0.382285
0.383288
0.384102
0.384956
0.38624
0.386188
0.386521
0.38757
0.388786
0.390086
0.391012
0.39197
0.392874
0.393758
0.394673
0.395546
0.396409
0.397308
0.398004
0.398945
0.399686
0.400549
0.401231
0.401936
0.403101
0.402998
0.403246
0.404109
0.405134
0.406286
0.407059
0.407851
0.408602
0.409319
0.410082
0.410788
0.411488
0.412242
0.412765
0.413568
0.414159
0.414852
0.4154
0.415922
0.41695
0.416766
0.416866
0.417525
0.418356
0.419318
0.419928
0.420539
0.421117
0.421672
0.422253
0.422788
0.423315
0.423896
0.424247
0.424877
0.425298
0.425827
0.426222
0.426553
0.427433
0.42715
0.427114
0.427582
0.428222
0.42903
0.42948
0.429947
0.430377
0.430787
0.431218
0.431622
0.432004
0.432454
0.432681
0.433166
0.433467
0.433847
0.434127
0.434311
0.435049
0.434715
0.434552
0.434868
0.435352
0.436015
0.436344
0.436685
0.436982
0.437283
0.437627
0.43796
0.438306
0.438762
0.439065
0.439632
0.439859
0.440012
0.439995
0.43984
0.440192
0.439597
0.43914
0.439195
0.439442
0.44001
0.440269
0.440588
0.44087
0.441083
0.441246
0.441337
0.441397
0.441513
0.44141
0.441564
0.441549
0.441629
0.441626
0.441524
0.441973
0.441497
0.44112
0.441189
0.441413
0.441862
0.441986
0.442138
0.442255
0.442373
0.442509
0.442626
0.44274
0.442926
0.442897
0.443118
0.443173
0.443305
0.443359
0.443293
0.443763
0.443351
0.442989
0.443038
0.443224
0.443642
0.443741
0.443865
0.443949
0.44403
0.444117
0.444172
0.444218
0.444344
0.444255
0.444402
0.444397
0.444405
0.444391
0.444231
0.44458