/*--------------------------------*- C++ -*----------------------------------*\
  =========                 |
  \\      /  F ield         | OpenFOAM: The Open Source CFD Toolbox
   \\    /   O peration     | Website:  https://openfoam.org
    \\  /    A nd           | Version:  9
     \\/     M anipulation  |
\*---------------------------------------------------------------------------*/
FoamFile
{
    format      ascii;
    class       volScalarField;
    location    "1282";
    object      epsilon;
}
// * * * * * * * * * * * * * * * * * * * * * * * * * * * * * * * * * * * * * //

dimensions      [0 2 -3 0 0 0 0];

internalField   nonuniform List<scalar> 
204073
(
16.4482
19.772
30.1051
22.8552
27.3108
32.0232
36.6317
41.3517
47.5552
54.2159
61.3406
68.8418
76.7003
84.8644
93.2894
101.944
110.796
119.8
128.966
138.265
147.688
157.2
166.788
176.557
186.297
196.175
206.107
216.128
226.208
236.379
246.593
256.897
267.237
277.663
288.118
298.645
309.188
319.813
330.447
341.149
351.848
362.609
373.363
384.167
394.939
405.754
416.554
427.353
438.1
449.008
459.67
470.414
481.092
491.881
502.394
513.121
523.577
534.105
544.511
554.877
565.287
575.461
585.635
595.738
605.741
615.652
625.467
635.309
644.853
654.428
663.854
673.202
682.413
691.538
700.526
709.42
718.174
726.844
735.342
743.754
752.018
760.176
768.184
776.088
783.829
791.463
798.939
806.316
813.532
820.651
827.601
834.447
841.128
847.702
854.109
860.421
866.559
872.615
878.538
884.286
889.965
895.441
900.816
906.088
911.209
916.231
921.107
925.887
930.508
935.038
939.417
943.709
947.852
951.93
955.881
959.697
963.413
967.015
970.535
973.918
977.208
980.416
983.51
986.52
989.402
992.226
994.946
997.554
1000.08
1002.54
1004.89
1007.18
1009.36
1011.47
1013.49
1015.46
1017.34
1019.16
1020.91
1022.58
1024.04
1025.55
1026.96
1028.32
1029.61
1030.81
1032
1033.08
1034.11
1035.07
1035.96
1036.83
1037.59
1038.32
1038.98
1039.61
1040.13
1040.63
1041.05
1041.44
1041.76
1042.04
1042.27
1042.45
1042.57
1042.63
1042.66
1042.64
1042.55
1042.43
1042.25
1042.03
1041.74
1041.42
1041.04
1040.65
1040.16
1039.69
1039.12
1038.52
1037.87
1037.17
1036.44
1035.66
1034.84
1033.97
1033.06
1032.1
1031.09
1030.07
1028.96
1027.84
1026.67
1025.45
1024.2
1022.89
1021.54
1020.16
1018.73
1017.26
1015.74
1014.19
1012.62
1010.96
1009.29
1007.56
1005.8
1004
1002.16
1000.28
998.351
996.407
994.384
992.345
990.262
988.138
985.981
983.777
981.563
979.258
976.969
974.589
972.232
969.783
967.335
964.835
962.307
959.731
957.127
954.482
951.81
949.092
946.374
943.577
940.777
937.922
935.067
932.137
929.223
926.236
923.251
920.22
917.17
914.072
910.956
907.809
904.632
901.433
898.22
895.036
891.696
888.332
885.085
881.634
878.407
874.872
871.591
868.032
864.678
861.088
857.704
854.094
850.67
847.038
843.575
839.865
836.358
832.658
829.097
825.519
821.844
817.997
814.415
810.619
807.027
803.16
799.508
795.655
791.978
788.106
784.415
780.549
776.811
772.944
769.204
765.25
761.499
757.586
753.815
750.007
746.132
742.087
738.273
734.321
730.527
726.511
722.712
718.704
714.869
710.856
706.964
702.99
699.125
695.124
691.257
687.195
683.31
679.29
675.399
671.447
667.48
663.335
659.461
655.391
651.512
647.413
643.426
639.412
635.451
631.289
627.437
623.326
619.396
615.311
611.249
607.197
603.194
599.118
595.022
591.139
586.996
582.821
578.723
574.683
570.545
566.502
562.319
558.272
554.182
550.011
545.961
541.772
537.704
533.516
529.436
525.221
521.124
516.94
512.684
508.719
504.437
500.189
496.073
491.817
487.721
483.453
479.179
475.077
470.691
466.585
462.392
458.154
453.811
449.695
445.454
441.151
436.969
432.714
428.531
424.38
419.935
415.785
411.354
407.241
403.004
398.727
394.536
390.267
386.081
381.813
377.646
373.378
369.239
365.025
360.69
356.651
352.459
348.319
344.001
340.046
335.873
331.733
327.502
323.563
319.312
315.402
311.145
307.224
303.197
299.177
295.227
291.235
287.311
283.381
279.504
275.584
271.742
267.889
264.109
260.373
256.477
252.877
249.001
245.436
241.78
238.146
234.586
230.985
227.494
223.97
220.555
217.118
213.602
210.346
206.999
203.685
200.438
197.209
194.035
190.901
187.703
184.735
181.59
178.692
175.737
172.807
169.952
167.09
164.302
161.509
158.787
156.092
153.466
150.751
148.27
145.705
143.131
140.727
138.283
135.867
133.552
131.22
128.877
126.669
124.46
122.27
120.137
118.025
115.915
113.925
111.887
109.96
108.037
106.101
104.28
102.4
100.638
98.8437
97.1408
95.4175
93.7616
92.1401
90.5368
88.9621
87.4233
85.8967
84.4369
82.9844
81.5593
80.1618
78.7907
77.4493
76.1284
74.8287
73.5726
72.3358
71.1087
69.9405
68.7681
67.6084
66.5171
65.4137
64.3629
63.3151
62.2952
61.2833
60.2921
59.3068
58.397
57.4421
56.4797
55.5388
54.6767
53.802
52.8634
52.853
52.8812
52.9259
52.968
53.0001
53.0917
53.145
53.2867
53.3569
53.4726
53.5918
53.7186
53.8679
54.0177
54.1901
54.3588
54.5504
54.7386
54.9028
55.2333
55.4208
55.5763
55.9664
56.0957
56.4787
56.6944
56.9758
57.2607
57.566
57.8651
58.1642
58.4652
58.7655
59.0803
59.2854
59.7504
59.9022
60.3204
60.5533
60.8126
60.9821
61.373
61.5612
61.7709
61.8971
62.1952
62.336
62.4707
62.6003
62.7255
62.7627
62.9021
62.957
62.936
63.0055
62.9845
62.9129
62.9193
62.8454
62.8022
62.7137
62.6144
62.5164
62.419
62.3092
62.2061
62.0736
61.9633
61.8421
61.7235
61.5963
61.4929
61.3772
61.2739
61.1743
61.0728
60.9963
60.9129
60.8517
60.789
60.7319
60.6911
60.6589
60.6539
60.6737
60.6543
60.6711
60.6979
60.7478
60.7937
60.8727
60.9553
61.069
61.1788
61.3212
61.4642
61.6173
61.7963
61.981
62.1884
62.4125
62.6468
62.8931
63.1591
63.469
63.7385
64.036
64.3431
64.6594
64.9876
65.3291
65.6789
66.0432
66.4101
66.7939
67.1833
67.5868
67.9924
68.4087
68.8239
69.2451
69.6629
70.0915
70.5244
70.99
71.3969
71.8283
72.2628
72.6908
73.1267
73.555
73.9792
74.4091
74.8276
75.2539
75.651
76.0717
76.4558
76.8646
77.2448
77.6295
77.9973
78.3709
78.7214
79.1062
79.4107
79.7386
80.0565
80.3658
80.6852
80.9592
81.2496
81.5045
81.7587
82.0176
82.2383
82.4614
82.6806
82.8688
83.0572
83.2325
83.382
83.5423
83.6739
83.8262
83.911
83.9948
84.0758
84.1471
84.2036
84.2414
84.2668
84.273
84.2705
84.2386
84.2145
84.161
84.1086
84.0546
83.9624
83.8526
83.7359
83.5842
83.4433
83.2895
83.0572
82.8379
82.6042
82.353
82.1146
81.8212
81.5273
81.2236
80.8911
80.5717
80.1931
79.8209
79.4232
79.0144
78.5859
78.1408
77.6641
77.1958
76.6859
76.1913
75.6228
75.064
74.4787
73.902
73.278
72.6435
71.9872
71.3245
70.6231
69.9358
69.1818
68.4552
67.6682
66.9025
66.0889
65.2705
64.4307
63.5763
62.7123
61.8385
60.906
59.9803
59.0273
58.0911
57.0997
56.117
55.0875
54.0755
53.0408
52.0214
50.9443
49.8779
48.7891
47.7243
46.6053
45.495
44.378
43.2561
42.1339
41.0042
39.8576
38.7259
37.5924
36.4504
35.3433
34.187
33.0554
31.9626
30.8224
29.7263
28.6409
27.5651
26.501
25.4554
24.4247
23.4153
22.4217
21.454
20.5079
19.5795
18.677
17.821
16.9592
16.4702
3.30832
16.0934
16.3587
16.6035
2.72717
2.53291
3.2978
23.3585
15.6893
2.48349
2.77302
2.92742
2.58461
2.58696
16.6638
15.5906
14.3663
3.0913
2.81229
2.47864
2.17286
1.88916
1.61529
1.31449
0.940142
0.510255
7.23336
4.92712
8.12537
9.52576
11.14
13.2265
15.2648
17.3904
19.9386
22.6429
25.5061
28.4941
31.598
34.7953
38.0675
41.4024
44.7869
48.2059
51.663
55.1473
58.6547
62.1759
65.7107
69.2816
72.8325
76.4175
80.008
83.6145
87.2311
90.8649
94.5042
98.1616
101.823
105.502
109.182
112.878
116.574
120.287
123.997
127.721
131.439
135.169
138.891
142.621
146.336
150.06
153.769
157.476
161.165
164.881
168.524
172.199
175.843
179.499
183.079
186.71
190.253
193.82
197.34
200.85
204.348
207.776
211.204
214.598
217.956
221.285
224.579
227.859
231.052
234.255
237.396
240.512
243.577
246.613
249.597
252.549
255.45
258.32
261.128
263.906
266.63
269.318
271.953
274.552
277.092
279.597
282.044
284.458
286.812
289.135
291.397
293.625
295.792
297.926
300.001
302.043
304.025
305.979
307.877
309.728
311.544
313.301
315.018
316.699
318.325
319.921
321.462
322.973
324.429
325.857
327.228
328.574
329.866
331.137
332.357
333.541
334.683
335.794
336.869
337.907
338.903
339.876
340.805
341.711
342.57
343.413
344.213
344.988
345.723
346.44
347.116
347.78
348.397
348.999
349.564
350.118
350.632
351.133
351.605
352.045
352.418
352.822
353.172
353.523
353.832
354.128
354.402
354.659
354.88
355.091
355.27
355.443
355.582
355.713
355.812
355.906
355.964
356.017
356.036
356.052
356.037
356.017
355.968
355.914
355.832
355.739
355.623
355.498
355.344
355.189
355.002
354.811
354.592
354.369
354.116
353.864
353.579
353.299
352.983
352.667
352.321
351.974
351.6
351.223
350.818
350.413
349.98
349.542
349.078
348.616
348.12
347.628
347.106
346.585
346.035
345.483
344.905
344.325
343.718
343.111
342.478
341.845
341.186
340.518
339.833
339.142
338.427
337.71
336.969
336.227
335.46
334.692
333.892
333.101
332.28
331.459
330.616
329.772
328.904
328.028
327.139
326.24
325.327
324.403
323.467
322.527
321.564
320.601
319.614
318.629
317.621
316.617
315.589
314.556
313.51
312.463
311.396
310.326
309.242
308.15
307.049
305.944
304.82
303.697
302.557
301.414
300.245
299.086
297.909
296.771
295.64
294.43
293.266
292.036
290.886
289.63
288.451
287.193
286.006
284.736
283.539
282.256
281.046
279.757
278.545
277.226
275.977
274.646
273.373
272.1
270.96
269.601
268.361
267.034
265.792
264.447
263.179
261.844
260.576
259.235
257.963
256.622
255.333
253.99
252.709
251.335
250.03
248.65
247.327
246.009
244.825
243.419
242.128
240.771
239.486
238.111
236.815
235.454
234.149
232.778
231.463
230.108
228.796
227.43
226.125
224.73
223.401
222.007
220.663
219.318
218.117
216.695
215.399
214.023
212.726
211.328
209.996
208.645
207.306
205.92
204.629
203.24
201.918
200.529
199.187
197.81
196.452
195.05
193.67
192.36
191.096
189.677
188.329
186.971
185.609
184.247
182.862
181.523
180.155
178.769
177.423
176.028
174.68
173.283
171.943
170.534
169.165
167.744
166.338
165.018
163.712
162.302
160.949
159.549
158.21
156.788
155.405
154.049
152.625
151.293
149.911
148.51
147.117
145.774
144.387
142.982
141.617
140.216
138.844
137.474
136.133
134.77
133.358
132.04
130.672
129.296
127.943
126.578
125.234
123.866
122.537
121.168
119.847
118.485
117.128
115.841
114.489
113.148
111.788
110.538
109.267
107.937
106.618
105.366
104.029
102.793
101.457
100.237
98.9678
97.71
96.4686
95.218
93.9902
92.7583
91.5485
90.3224
89.1239
87.9175
86.735
85.5611
84.3974
83.2682
82.0678
80.9698
79.8304
78.7117
77.6046
76.4947
75.419
74.3302
73.2776
72.2044
71.1306
70.1296
69.0914
68.0754
67.0743
66.0776
65.0987
64.1296
63.171
62.2566
61.2923
60.4088
59.4926
58.5997
57.7214
56.8443
55.9908
55.1322
54.3003
53.4735
52.6632
51.8317
51.0731
50.281
49.4942
48.7571
48.001
47.2626
46.5573
45.8344
45.117
44.4399
43.7552
43.0859
42.4273
41.7764
41.1275
40.5136
39.8845
39.291
38.6943
38.0958
37.5311
36.9535
36.4083
35.8512
35.3232
34.7905
34.2764
33.7731
33.2742
32.7843
32.3036
31.8328
31.3761
30.9243
30.4798
30.0434
29.6153
29.1958
28.7818
28.3744
27.9797
27.5949
27.2099
26.8436
26.4739
26.1134
25.766
25.4195
25.0886
24.758
24.4329
24.1157
23.8009
23.4903
23.2017
22.8942
22.5875
22.2918
22.0208
21.734
21.4253
21.3618
21.31
21.2633
21.2173
21.1717
21.1388
21.096
21.0845
21.0502
21.0267
21.0107
20.9938
20.986
20.9777
20.9781
20.9773
20.9825
20.9888
20.9835
21.0292
21.0448
21.037
21.1031
21.0961
21.1552
21.1742
21.2065
21.2407
21.2827
21.3205
21.3623
21.4014
21.44
21.4866
21.494
21.574
21.5755
21.636
21.6617
21.6873
21.6817
21.7327
21.7438
21.7555
21.7288
21.753
21.7482
21.7332
21.7153
21.7014
21.6526
21.6347
21.6092
21.5426
21.5088
21.462
21.3865
21.3411
21.2711
21.2094
21.1446
21.0756
21.0068
20.9467
20.862
20.8025
20.7347
20.6757
20.6193
20.5663
20.5024
20.4545
20.4027
20.3587
20.3202
20.2804
20.2522
20.218
20.1978
20.1842
20.1671
20.1605
20.1517
20.1572
20.1553
20.1617
20.1819
20.2043
20.236
20.2688
20.3087
20.3494
20.405
20.4547
20.5173
20.5846
20.6536
20.7328
20.8086
20.8966
20.9894
21.087
21.1835
21.2945
21.3932
21.5072
21.626
21.7495
21.8769
22.0058
22.1352
22.2707
22.4095
22.5488
22.6927
22.8386
22.9865
23.1367
23.2903
23.4474
23.597
23.7507
23.9061
24.0681
24.2073
24.3597
24.5208
24.6814
24.839
25.0022
25.154
25.3064
25.4607
25.6105
25.7625
25.9066
26.0557
26.1952
26.3389
26.4803
26.6146
26.7462
26.8781
27.0112
27.1164
27.2319
27.3556
27.4773
27.5918
27.7143
27.8128
27.918
28.0147
28.1082
28.2026
28.2876
28.3691
28.4516
28.5243
28.5993
28.6632
28.7228
28.7831
28.8446
28.8682
28.911
28.9558
28.9982
29.0347
29.0705
29.0905
29.108
29.1193
29.1287
29.1363
29.1411
29.1359
29.134
29.1174
29.1151
29.0848
29.0601
29.0217
28.989
28.9253
28.87
28.8195
28.7655
28.6977
28.6376
28.5571
28.473
28.3853
28.2879
28.1928
28.0867
27.9773
27.8585
27.7349
27.6102
27.4724
27.3264
27.1806
27.0344
26.8546
26.6841
26.5183
26.341
26.1617
25.9767
25.7752
25.5671
25.3587
25.135
24.9168
24.6807
24.4485
24.1974
23.9484
23.693
23.4229
23.1491
22.8669
22.5884
22.2856
21.9881
21.6911
21.3784
21.0684
20.7483
20.4213
20.082
19.7407
19.3867
19.0405
18.6833
18.3218
17.9472
17.5807
17.2062
16.8222
16.436
16.0486
15.6621
15.2643
14.8695
14.4741
14.0777
13.6729
13.2784
12.8752
12.4683
12.0752
11.6745
11.2783
10.8834
10.4943
10.1075
9.72651
9.34951
8.9792
8.61514
8.25938
7.91196
7.57024
7.23633
6.91948
6.56054
6.60782
3.09946
7.05549
7.86372
8.40278
3.39688
2.33241
2.17035
10.7039
4.7931
2.2592
1.95916
1.80048
1.64149
1.39188
7.06997
7.05183
6.50213
1.946
1.59285
1.37492
1.17725
0.997558
0.83001
0.65752
0.459107
0.255835
4.08189
3.4856
5.33812
6.51762
7.77839
9.25437
10.7347
12.2899
14.0775
15.9635
17.9476
20.0067
22.1331
24.3111
26.5279
28.7748
31.0432
33.3247
35.6206
37.924
40.2323
42.5406
44.8504
47.1726
49.4764
51.7935
54.1081
56.4255
58.7443
61.0666
63.3883
65.7144
68.0393
70.3686
72.6959
75.0263
77.3552
79.6886
82.0181
84.3502
86.677
89.0061
91.3284
93.6502
95.9618
98.2737
100.575
102.87
105.156
107.449
109.699
111.965
114.211
116.458
118.661
120.888
123.063
125.248
127.404
129.551
131.686
133.778
135.871
137.937
139.982
142.006
144.009
145.997
147.936
149.876
151.778
153.661
155.515
157.346
159.147
160.925
162.672
164.396
166.084
167.75
169.384
170.993
172.57
174.121
175.639
177.131
178.59
180.025
181.424
182.801
184.142
185.459
186.741
187.998
189.222
190.422
191.588
192.732
193.845
194.924
195.985
197.006
198.006
198.979
199.922
200.841
201.73
202.597
203.432
204.247
205.031
205.794
206.528
207.244
207.933
208.595
209.237
209.852
210.451
211.022
211.572
212.103
212.61
213.099
213.563
214.012
214.44
214.847
215.234
215.605
215.956
216.293
216.607
216.907
217.189
217.459
217.707
217.943
218.165
218.361
218.525
218.701
218.847
218.991
219.112
219.221
219.32
219.404
219.472
219.527
219.568
219.599
219.615
219.62
219.611
219.593
219.558
219.516
219.456
219.39
219.309
219.221
219.119
219.009
218.886
218.753
218.608
218.454
218.286
218.113
217.925
217.729
217.521
217.306
217.077
216.843
216.593
216.342
216.073
215.8
215.512
215.22
214.914
214.603
214.279
213.95
213.607
213.258
212.897
212.532
212.151
211.769
211.372
210.971
210.557
210.137
209.705
209.268
208.818
208.365
207.899
207.429
206.947
206.457
205.959
205.454
204.938
204.418
203.886
203.35
202.803
202.25
201.684
201.118
200.537
199.954
199.361
198.763
198.155
197.539
196.919
196.288
195.654
195.009
194.361
193.706
193.042
192.375
191.697
191.017
190.327
189.636
188.934
188.227
187.516
186.801
186.077
185.349
184.617
183.877
183.134
182.387
181.632
180.875
180.112
179.344
178.565
177.791
177.013
176.258
175.489
174.689
173.91
173.1
172.322
171.508
170.734
169.898
169.116
168.284
167.495
166.655
165.859
165.029
164.214
163.37
162.555
161.694
160.883
160.076
159.304
158.432
157.63
156.777
155.965
155.118
154.311
153.449
152.639
151.785
150.973
150.119
149.3
148.457
147.625
146.77
145.945
145.079
144.261
143.451
142.676
141.8
140.994
140.148
139.336
138.495
137.696
136.844
136.038
135.193
134.383
133.547
132.739
131.909
131.09
130.25
129.439
128.591
127.787
126.988
126.232
125.373
124.591
123.761
122.97
122.143
121.355
120.534
119.735
118.914
118.141
117.314
116.529
115.711
114.906
114.101
113.299
112.475
111.682
110.923
110.16
109.332
108.551
107.756
106.961
106.176
105.385
104.6
103.811
103.014
102.237
101.435
100.661
99.8653
99.0849
98.2875
97.5061
96.695
95.9124
95.1682
94.4104
93.6116
92.8454
92.0555
91.2918
90.4968
89.7295
88.9533
88.1635
87.4139
86.6347
85.8488
85.0772
84.3268
83.5406
82.7666
82.0052
81.2247
80.4674
79.7112
78.9615
78.1988
77.424
76.6918
75.9276
75.1756
74.4307
73.6715
72.9307
72.1757
71.442
70.6872
69.958
69.2086
68.4633
67.7539
67.0068
66.2675
65.5313
64.8486
64.1371
63.4046
62.6861
61.9923
61.2593
60.5803
59.8529
59.18
58.48
57.7905
57.1072
56.4192
55.7451
55.0696
54.398
53.727
53.068
52.4032
51.7551
51.1103
50.4692
49.8411
49.1828
48.5773
47.9447
47.3314
46.7203
46.1054
45.5113
44.9085
44.3247
43.7274
43.1377
42.5825
42.0017
41.441
40.8844
40.3294
39.7861
39.2486
38.7151
38.2022
37.6668
37.1732
36.6586
36.1622
35.6706
35.1772
34.699
34.2166
33.7499
33.2839
32.8263
32.3624
31.9305
31.4822
31.0404
30.6212
30.1924
29.7765
29.3726
28.9603
28.5537
28.1675
27.7755
27.3948
27.0188
26.6446
26.2747
25.9211
25.56
25.2182
24.8735
24.5308
24.2025
23.8705
23.5546
23.2323
22.9258
22.618
22.3178
22.0247
21.7336
21.4482
21.167
20.8933
20.6262
20.3605
20.1001
19.8438
19.592
19.3449
19.1008
18.862
18.6277
18.4006
18.1733
17.956
17.7369
17.5248
17.3168
17.1112
16.9137
16.7165
16.5214
16.3322
16.1442
15.9573
15.7828
15.598
15.4152
15.2379
15.0721
14.902
14.7304
14.6682
14.6119
14.5582
14.5058
14.4551
14.4089
14.3583
14.3256
14.2809
14.2409
14.2067
14.1723
14.142
14.1121
14.0872
14.0614
14.0387
14.0174
13.9891
13.9876
13.9742
13.9429
13.9528
13.9254
13.9314
13.9176
13.9078
13.8995
13.8962
13.8891
13.8848
13.8793
13.8707
13.8678
13.8424
13.8522
13.8271
13.8247
13.8113
13.7923
13.7551
13.7453
13.7199
13.6932
13.6425
13.6161
13.5785
13.5334
13.4854
13.4397
13.375
13.3238
13.2727
13.1977
13.1373
13.0754
12.9954
12.9298
12.8543
12.7801
12.7076
12.6326
12.557
12.4879
12.407
12.337
12.2654
12.1983
12.1344
12.0723
12.0062
11.9494
11.8907
11.8372
11.7882
11.7389
11.6968
11.6519
11.6165
11.5837
11.5521
11.5265
11.4992
11.4816
11.4639
11.4466
11.4392
11.431
11.4323
11.4359
11.4445
11.4516
11.4683
11.485
11.5057
11.5335
11.5604
11.5942
11.6288
11.6659
11.7106
11.7579
11.8042
11.8591
11.9114
11.9675
12.0271
12.0901
12.1571
12.2227
12.2925
12.366
12.4396
12.5149
12.5928
12.6721
12.7525
12.8342
12.9199
13.0031
13.087
13.1722
13.2576
13.3479
13.4293
13.5112
13.5987
13.6868
13.775
13.8637
13.9509
14.0377
14.123
14.2069
14.2918
14.373
14.456
14.5345
14.6162
14.6922
14.7699
14.8443
14.9172
14.9931
15.0572
15.1192
15.1864
15.2544
15.319
15.3852
15.4447
15.5053
15.5603
15.6134
15.6665
15.7164
15.7632
15.8099
15.8547
15.8936
15.9332
15.9689
16.0026
16.0404
16.0613
16.0831
16.1084
16.133
16.1559
16.1762
16.1929
16.2084
16.2159
16.2251
16.2254
16.2348
16.2305
16.2301
16.227
16.2288
16.2144
16.2091
16.1916
16.1803
16.1544
16.1237
16.0975
16.0722
16.0405
16.0104
15.9743
15.9345
15.8916
15.8438
15.7981
15.7457
15.6913
15.6325
15.5732
15.5074
15.4416
15.369
15.2958
15.2234
15.1363
15.046
14.9607
14.8706
14.782
14.687
14.5881
14.4841
14.3784
14.2647
14.1554
14.0344
13.9172
13.7886
13.6638
13.5307
13.3947
13.2558
13.111
12.9694
12.8164
12.6594
12.5055
12.344
12.1859
12.0192
11.8527
11.6773
11.4996
11.3165
11.1374
10.9504
10.7619
10.5655
10.3748
10.176
9.97518
9.77147
9.5659
9.36122
9.14995
8.93696
8.72486
8.51284
8.29519
8.08221
7.86544
7.64372
7.42922
7.20994
6.99165
6.77391
6.55818
6.34271
6.12994
5.91758
5.70927
5.50266
5.29951
5.10044
4.90329
4.70957
4.52404
4.31261
4.3434
2.82151
4.4104
4.89804
5.20137
2.89111
2.20668
2.24098
6.03555
3.23104
2.08849
1.92062
1.80526
1.69315
1.54645
3.94052
3.93601
3.5893
1.42368
1.18945
1.01984
0.865537
0.726399
0.598871
0.47193
0.332157
0.196456
2.78149
3.09342
4.45368
5.24638
6.36383
7.57803
8.81585
10.1218
11.5899
13.1333
14.7496
16.4205
18.1389
19.8918
21.6691
23.4638
25.2692
27.0799
28.8962
30.7127
32.5275
34.3379
36.1457
37.9566
39.7514
41.5521
43.3471
45.1413
46.933
48.7245
50.5126
52.3014
54.0864
55.8724
57.6542
59.4365
61.2152
62.9953
64.7702
66.5452
68.3142
70.0832
71.8451
73.605
75.3555
77.1049
78.8442
80.5781
82.3035
84.0305
85.7269
87.4334
89.1229
90.8098
92.4665
94.1364
95.7678
97.4058
99.02
100.628
102.223
103.788
105.351
106.893
108.418
109.927
111.419
112.898
114.341
115.784
117.196
118.595
119.969
121.327
122.661
123.978
125.271
126.545
127.792
129.023
130.227
131.414
132.575
133.717
134.833
135.93
137
138.053
139.078
140.087
141.067
142.03
142.965
143.883
144.774
145.648
146.495
147.326
148.131
148.914
149.68
150.418
151.139
151.84
152.517
153.178
153.814
154.435
155.03
155.612
156.168
156.711
157.23
157.736
158.22
158.686
159.135
159.565
159.982
160.378
160.758
161.124
161.471
161.806
162.121
162.425
162.711
162.984
163.241
163.487
163.715
163.935
164.136
164.329
164.505
164.675
164.826
164.968
165.098
165.211
165.3
165.398
165.472
165.545
165.6
165.648
165.685
165.713
165.728
165.735
165.729
165.717
165.692
165.661
165.617
165.568
165.504
165.437
165.355
165.27
165.171
165.07
164.955
164.836
164.705
164.57
164.422
164.27
164.106
163.939
163.759
163.575
163.38
163.181
162.971
162.758
162.531
162.306
162.063
161.822
161.566
161.309
161.04
160.768
160.485
160.2
159.902
159.603
159.292
158.979
158.653
158.328
157.989
157.65
157.298
156.945
156.58
156.213
155.836
155.456
155.066
154.675
154.273
153.866
153.452
153.034
152.607
152.177
151.737
151.296
150.845
150.392
149.927
149.464
148.988
148.513
148.027
147.541
147.044
146.545
146.039
145.529
145.013
144.492
143.967
143.438
142.901
142.364
141.817
141.271
140.715
140.161
139.597
139.031
138.461
137.889
137.31
136.729
136.144
135.555
134.963
134.369
133.768
133.168
132.561
131.953
131.337
130.727
130.113
129.509
128.901
128.272
127.663
127.021
126.411
125.766
125.147
124.509
123.887
123.238
122.617
121.962
121.345
120.682
120.059
119.397
118.764
118.107
117.474
116.836
116.234
115.563
114.946
114.283
113.658
112.999
112.367
111.72
111.088
110.434
109.808
109.153
108.53
107.872
107.247
106.59
105.961
105.312
104.687
104.059
103.467
102.806
102.201
101.554
100.943
100.303
99.6896
99.0616
98.4477
97.8137
97.2052
96.5762
95.9746
95.3413
94.7395
94.1082
93.5039
92.8818
92.2816
91.6796
91.1142
90.4816
89.9061
89.2874
88.7049
88.0907
87.5039
86.91
86.3182
85.7191
85.1471
84.5414
83.9709
83.363
82.7882
82.195
81.6128
81.0222
80.4481
79.8859
79.3321
78.7358
78.1777
77.5968
77.0292
76.4581
75.8857
75.3299
74.7591
74.1897
73.6322
73.0584
72.5093
71.9328
71.3846
70.8124
70.2574
69.6877
69.1355
68.5973
68.0607
67.4967
66.958
66.3964
65.8582
65.2944
64.7518
64.2098
63.6555
63.1254
62.5759
62.0255
61.4904
60.9528
60.4093
59.8653
59.3323
58.7909
58.2596
57.7254
57.2068
56.6713
56.1386
55.6219
55.0901
54.5643
54.0411
53.5196
53.0009
52.4757
51.9639
51.4389
50.9331
50.4058
49.898
49.3974
48.878
48.3681
47.8594
47.3773
46.8825
46.374
45.8801
45.3914
44.8869
44.4091
43.9039
43.4398
42.949
42.4705
41.9942
41.5151
41.0482
40.5727
40.1089
39.639
39.18
38.7186
38.2653
37.8118
37.3686
36.9264
36.4719
36.0455
35.6035
35.173
34.7425
34.3168
33.8984
33.4761
33.0656
32.6456
32.2366
31.8412
31.4362
31.0407
30.6491
30.26
29.8762
29.4954
29.123
28.7592
28.3848
28.0337
27.6706
27.3184
26.968
26.6217
26.2813
25.9394
25.6081
25.2765
24.9521
24.6214
24.3148
23.9933
23.6801
23.3809
23.0737
22.7753
22.4871
22.1914
21.9025
21.6241
21.3435
21.0691
20.7973
20.5304
20.2642
20.0088
19.7488
19.5016
19.2532
19.0044
18.7682
18.5274
18.2982
18.0658
17.8424
17.6176
17.4007
17.1873
16.976
16.7675
16.5631
16.3627
16.1664
15.9736
15.7825
15.5949
15.4103
15.229
15.0507
14.8742
14.7033
14.5356
14.3686
14.2091
14.0474
13.8903
13.7376
13.586
13.4403
13.2939
13.1497
13.0088
12.8685
12.7308
12.5997
12.4628
12.3281
12.1966
12.0726
11.948
11.8335
11.7756
11.7217
11.67
11.6188
11.5688
11.5229
11.4734
11.4367
11.3915
11.35
11.3121
11.2738
11.24
11.2053
11.1745
11.1431
11.1134
11.0859
11.0517
11.0372
11.015
10.9797
10.9722
10.9403
10.9287
10.9067
10.8856
10.8658
10.8486
10.8296
10.8112
10.7917
10.7708
10.7534
10.7194
10.7081
10.6759
10.6567
10.6292
10.6007
10.5567
10.53
10.4945
10.4578
10.4034
10.3643
10.3192
10.2691
10.215
10.1637
10.099
10.0401
9.98536
9.91367
9.84937
9.78616
9.71095
9.64416
9.57047
9.49905
9.42801
9.356
9.28366
9.2153
9.13981
9.07163
9.00295
8.93754
8.87383
8.81279
8.74938
8.69092
8.63428
8.57947
8.52882
8.47841
8.43282
8.3872
8.34554
8.30853
8.27174
8.23968
8.20762
8.18115
8.15556
8.13159
8.11342
8.09666
8.0848
8.07578
8.07053
8.06274
8.06429
8.06783
8.0707
8.0821
8.09117
8.10655
8.12247
8.14126
8.16422
8.19026
8.21687
8.24774
8.2781
8.31221
8.34806
8.38654
8.42723
8.46871
8.51242
8.55809
8.60668
8.65517
8.70593
8.75801
8.81101
8.86572
8.92098
8.97773
9.0338
9.09124
9.14915
9.20949
9.26522
9.32202
9.38066
9.44075
9.50011
9.56094
9.62075
9.67919
9.73942
9.7967
9.85523
9.91132
9.96833
10.0237
10.0782
10.1325
10.186
10.2379
10.2888
10.3407
10.386
10.4308
10.4765
10.5239
10.5678
10.614
10.6559
10.6967
10.7373
10.7742
10.8111
10.8469
10.8799
10.9135
10.9437
10.9729
11.0007
11.0267
11.0509
11.0775
11.0942
11.1116
11.1294
11.1474
11.1631
11.1788
11.1915
11.2028
11.2116
11.2191
11.2195
11.2276
11.2243
11.2247
11.2232
11.228
11.2219
11.2185
11.2085
11.2042
11.1896
11.1727
11.1565
11.1416
11.1215
11.1034
11.0817
11.056
11.0316
11.0016
10.9732
10.941
10.907
10.8712
10.8326
10.7927
10.7514
10.7061
10.6603
10.6143
10.56
10.504
10.4492
10.3922
10.3352
10.2756
10.2132
10.1462
10.0812
10.0086
9.93941
9.86281
9.78813
9.70743
9.6264
9.54316
9.45627
9.36807
9.27624
9.18518
9.08791
8.98803
8.88888
8.78538
8.68331
8.5767
8.46949
8.35621
8.24345
8.12511
8.00948
7.88892
7.76694
7.64011
7.51494
7.38687
7.25557
7.12264
6.98817
6.85353
6.71471
6.57486
6.43417
6.29417
6.14943
6.00736
5.86299
5.714
5.5703
5.42254
5.2747
5.1268
4.97968
4.83244
4.68577
4.53962
4.39481
4.25087
4.1087
3.96855
3.82905
3.6923
3.55823
3.41266
3.40076
2.62559
3.29783
3.53368
3.67959
2.53683
2.11487
2.19347
3.90882
2.6565
1.97656
1.87283
1.8111
1.72454
1.60708
2.59228
2.53499
2.3009
1.1709
0.995541
0.851326
0.718994
0.59999
0.492207
0.387958
0.276891
0.172674
2.16342
2.83487
3.94348
4.56226
5.57708
6.6439
7.74303
8.90612
10.1955
11.5474
12.9579
14.4116
15.9015
17.4167
18.9482
20.4902
22.0372
23.5855
25.1347
26.6805
28.2214
29.7556
31.2853
32.8136
34.3275
35.843
37.352
38.8579
40.3602
41.8598
43.3555
44.8493
46.3392
47.8275
49.3116
50.7939
52.2729
53.7507
55.2238
56.6949
58.1608
59.6246
61.0825
62.5365
63.983
65.4263
66.8613
68.2902
69.7128
71.1324
72.5298
73.9326
75.3217
76.7053
78.0674
79.4353
80.7745
82.1161
83.439
84.7552
86.059
87.3395
88.6173
89.8764
91.122
92.3535
93.5713
94.7753
95.9527
97.1268
98.2771
99.4145
100.533
101.636
102.72
103.789
104.839
105.871
106.883
107.879
108.855
109.815
110.754
111.676
112.578
113.463
114.328
115.176
116.003
116.813
117.603
118.376
119.128
119.864
120.579
121.279
121.958
122.622
123.266
123.89
124.502
125.088
125.664
126.22
126.758
127.281
127.786
128.276
128.747
129.204
129.643
130.068
130.477
130.872
131.251
131.614
131.964
132.297
132.62
132.925
133.219
133.499
133.765
134.019
134.259
134.488
134.704
134.907
135.1
135.281
135.45
135.609
135.755
135.892
136.019
136.136
136.241
136.336
136.423
136.494
136.549
136.608
136.649
136.687
136.714
136.732
136.743
136.743
136.736
136.72
136.696
136.664
136.623
136.576
136.52
136.458
136.385
136.308
136.221
136.129
136.028
135.922
135.808
135.688
135.56
135.426
135.284
135.137
134.982
134.822
134.653
134.48
134.299
134.113
133.92
133.722
133.515
133.306
133.087
132.865
132.634
132.4
132.158
131.911
131.658
131.4
131.135
130.865
130.589
130.308
130.019
129.729
129.429
129.127
128.817
128.503
128.182
127.857
127.526
127.191
126.849
126.504
126.152
125.795
125.433
125.066
124.694
124.318
123.935
123.55
123.158
122.762
122.359
121.955
121.544
121.13
120.71
120.288
119.859
119.426
118.99
118.549
118.104
117.655
117.203
116.746
116.285
115.822
115.353
114.882
114.407
113.93
113.447
112.962
112.474
111.984
111.489
110.992
110.493
109.99
109.485
108.978
108.467
107.955
107.439
106.921
106.4
105.881
105.362
104.85
104.327
103.795
103.27
102.741
102.217
101.675
101.152
100.609
100.084
99.5387
99.0127
98.4662
97.934
97.3886
96.8573
96.308
95.771
95.217
94.6936
94.1649
93.6446
93.0859
92.5612
92.0187
91.4895
90.9416
90.4151
89.8705
89.3445
88.8015
88.2778
87.7372
87.209
86.6724
86.1474
85.6089
85.0834
84.5434
84.0329
83.5191
83.0144
82.472
81.965
81.4426
80.9325
80.4076
79.9033
79.3825
78.8787
78.3598
77.8595
77.3472
76.8447
76.3358
75.838
75.328
74.8312
74.3216
73.8387
73.3534
72.8794
72.3683
71.894
71.4011
70.9233
70.4274
69.9541
69.4684
68.9916
68.5098
68.0449
67.5604
67.0924
66.6115
66.1458
65.6724
65.2025
64.7273
64.2738
63.8254
63.3715
62.8974
62.4472
61.9903
61.5348
61.0794
60.6264
60.179
59.7264
59.2755
58.8314
58.3794
57.9373
57.4876
57.0495
56.6006
56.1595
55.7083
55.2792
54.8556
54.4243
53.9814
53.5529
53.118
52.6906
52.2489
51.8249
51.3946
50.9633
50.5457
50.114
49.6861
49.2628
48.8451
48.4174
47.9957
47.5765
47.1515
46.7402
46.3257
45.9159
45.4969
45.0806
44.681
44.2635
43.8548
43.4476
43.0387
42.6352
42.2266
41.8269
41.4201
41.0212
40.6154
40.2195
39.8289
39.4233
39.0255
38.6342
38.2591
37.868
37.4733
37.0876
36.7091
36.3164
35.9425
35.5519
35.187
34.8046
34.4325
34.0605
33.6887
33.3213
32.9535
32.5895
32.2247
31.8652
31.5036
31.1518
30.7993
30.4507
30.1035
29.7483
29.417
29.0695
28.733
28.3963
28.0618
27.7342
27.4035
27.0807
26.7526
26.4309
26.1216
25.8024
25.4933
25.1846
24.8776
24.5774
24.2796
23.9853
23.6976
23.4027
23.1275
22.8404
22.5628
22.2862
22.0117
21.7431
21.4732
21.211
20.9493
20.6905
20.4317
20.1865
19.9323
19.6842
19.4449
19.2022
18.9666
18.7354
18.5003
18.2701
18.0498
17.8257
17.6071
17.3906
17.1768
16.9652
16.7607
16.5533
16.3558
16.1556
15.9582
15.768
15.5761
15.3916
15.2048
15.0259
14.8464
14.6712
14.4994
14.3286
14.1621
13.9971
13.8358
13.6775
13.5213
13.3674
13.2158
13.0666
12.9204
12.7753
12.6335
12.4946
12.359
12.2237
12.0935
11.9631
11.8364
11.7116
11.5886
11.4693
11.3511
11.2334
11.1185
11.0042
10.8913
10.7838
10.6725
10.5633
10.4568
10.3547
10.2562
10.1703
10.1173
10.0662
10.0165
9.96838
9.92148
9.87653
9.82948
9.7916
9.74894
9.70788
9.66983
9.6321