/*--------------------------------*- C++ -*----------------------------------*\
  =========                 |
  \\      /  F ield         | OpenFOAM: The Open Source CFD Toolbox
   \\    /   O peration     | Website:  https://openfoam.org
    \\  /    A nd           | Version:  9
     \\/     M anipulation  |
\*---------------------------------------------------------------------------*/
FoamFile
{
    format      ascii;
    class       volScalarField;
    location    "1282";
    object      k;
}
// * * * * * * * * * * * * * * * * * * * * * * * * * * * * * * * * * * * * * //

dimensions      [0 2 -2 0 0 0 0];

internalField   nonuniform List<scalar> 
204073
(
0.0596328
0.0541979
0.0744785
0.150772
0.166546
0.185269
0.202687
0.219808
0.241299
0.263311
0.2859
0.308752
0.331811
0.354953
0.378074
0.401109
0.424001
0.446684
0.469192
0.491493
0.513584
0.535414
0.55696
0.578531
0.599605
0.620625
0.641384
0.662037
0.682453
0.702791
0.722883
0.742912
0.7627
0.782439
0.801935
0.821364
0.840573
0.859746
0.878682
0.897583
0.916231
0.934859
0.953234
0.971568
0.989621
1.00764
1.02542
1.04311
1.06047
1.07808
1.09503
1.11207
1.12879
1.14568
1.16187
1.17842
1.19433
1.21031
1.22595
1.24147
1.25696
1.27203
1.28695
1.30174
1.31624
1.33062
1.34466
1.35881
1.37234
1.38593
1.39916
1.41232
1.42513
1.43786
1.45025
1.46256
1.47453
1.48643
1.49796
1.50941
1.52052
1.53155
1.54224
1.55286
1.56313
1.57332
1.58316
1.59295
1.60239
1.61178
1.62082
1.62981
1.63846
1.64703
1.65528
1.66348
1.67135
1.67916
1.68674
1.69411
1.70133
1.70835
1.71514
1.72188
1.72832
1.73472
1.74083
1.7469
1.75267
1.7584
1.76385
1.76928
1.77442
1.77954
1.78443
1.78922
1.79382
1.79832
1.80263
1.80688
1.81092
1.81494
1.8187
1.82249
1.826
1.82951
1.8328
1.83606
1.83913
1.8422
1.84503
1.84789
1.85051
1.85315
1.85557
1.85803
1.86028
1.86256
1.86467
1.86675
1.86849
1.8704
1.87202
1.87376
1.87527
1.8768
1.87817
1.87956
1.88076
1.88199
1.88303
1.88413
1.88501
1.88596
1.88672
1.88752
1.88811
1.88878
1.88925
1.88978
1.89013
1.89053
1.89076
1.89103
1.89113
1.89127
1.89126
1.89129
1.89115
1.89106
1.8908
1.89059
1.8902
1.88987
1.88938
1.88895
1.88833
1.88781
1.88707
1.88641
1.88557
1.88479
1.88385
1.88297
1.88193
1.88094
1.87979
1.87869
1.87741
1.87624
1.87484
1.87354
1.87207
1.87065
1.86908
1.86755
1.86586
1.86423
1.86244
1.86071
1.85882
1.85698
1.85502
1.85305
1.85096
1.84891
1.84671
1.84456
1.84226
1.84001
1.8376
1.83528
1.83275
1.8303
1.82769
1.82513
1.82243
1.81976
1.817
1.8142
1.81134
1.80844
1.80549
1.80251
1.79943
1.79638
1.79319
1.79005
1.78676
1.78352
1.78015
1.7768
1.77338
1.76994
1.76639
1.76285
1.75925
1.7556
1.75192
1.74821
1.74441
1.74064
1.73675
1.73288
1.72888
1.72498
1.7209
1.71689
1.71276
1.70853
1.70451
1.70022
1.69608
1.69167
1.68754
1.68303
1.6788
1.67423
1.66991
1.66528
1.66094
1.65626
1.65183
1.64712
1.64265
1.63782
1.63325
1.62842
1.6238
1.61866
1.6143
1.60925
1.60456
1.59956
1.59482
1.58972
1.58492
1.5798
1.57493
1.56979
1.56487
1.55973
1.55473
1.54957
1.54457
1.53926
1.53422
1.52896
1.52388
1.5183
1.51348
1.50802
1.50284
1.49746
1.49229
1.48681
1.4816
1.47612
1.47086
1.46536
1.45999
1.45449
1.44915
1.44361
1.43825
1.4326
1.42718
1.42157
1.41614
1.41018
1.40502
1.39918
1.39372
1.38797
1.38248
1.37669
1.37099
1.36529
1.35965
1.35365
1.34815
1.34224
1.33658
1.33074
1.32482
1.31896
1.31314
1.30724
1.30121
1.29519
1.28948
1.28338
1.27729
1.27139
1.2652
1.25927
1.25299
1.24699
1.24088
1.23463
1.22856
1.22226
1.21613
1.20979
1.2036
1.19718
1.19094
1.1846
1.17801
1.17161
1.16533
1.15878
1.1524
1.14579
1.13941
1.13279
1.126
1.11966
1.11264
1.10619
1.09957
1.09286
1.08583
1.0793
1.07249
1.06556
1.05881
1.0519
1.04511
1.03814
1.03104
1.02433
1.01693
1.01016
1.00313
0.996034
0.989026
0.981871
0.97484
0.967606
0.960562
0.953298
0.946231
0.939073
0.931528
0.92458
0.917334
0.910174
0.902508
0.895375
0.888278
0.881038
0.873398
0.866505
0.858771
0.851854
0.844044
0.836987
0.829638
0.822302
0.815042
0.807674
0.800414
0.793066
0.785826
0.778454
0.771186
0.763874
0.756671
0.749366
0.74197
0.735122
0.727486
0.720555
0.713368
0.706207
0.69914
0.691973
0.684974
0.677876
0.670964
0.664032
0.656751
0.650085
0.643167
0.636278
0.629491
0.622699
0.615999
0.609235
0.602491
0.596189
0.589324
0.583064
0.57662
0.570173
0.56388
0.557527
0.551308
0.545037
0.538896
0.532775
0.526818
0.520531
0.514812
0.508895
0.502838
0.497198
0.491434
0.485554
0.480155
0.474566
0.468869
0.463501
0.458103
0.452708
0.447428
0.442193
0.436889
0.431883
0.426693
0.421769
0.416855
0.411843
0.407125
0.402213
0.397591
0.392862
0.388314
0.383613
0.379267
0.374881
0.370523
0.366206
0.361971
0.357759
0.353676
0.349607
0.345598
0.341636
0.337728
0.333882
0.330082
0.326308
0.322675
0.319036
0.315416
0.311985
0.308471
0.3049
0.30169
0.298342
0.29518
0.29196
0.288803
0.285667
0.282609
0.279541
0.276664
0.273582
0.270614
0.267791
0.26494
0.261651
0.258634
0.257907
0.257984
0.258115
0.258244
0.25827
0.25863
0.258809
0.259308
0.259503
0.259857
0.260238
0.260645
0.261117
0.261596
0.262155
0.262692
0.26332
0.263905
0.264423
0.265525
0.266087
0.266583
0.267883
0.268225
0.269444
0.270183
0.271073
0.271974
0.272947
0.273898
0.274853
0.275798
0.276774
0.277744
0.278371
0.279908
0.280327
0.281726
0.282425
0.283235
0.283769
0.285062
0.28562
0.286281
0.286555
0.287667
0.288079
0.288516
0.288941
0.289341
0.289449
0.289987
0.290118
0.290045
0.29035
0.290266
0.290043
0.290119
0.289821
0.289779
0.289491
0.289196
0.288898
0.288609
0.288151
0.288017
0.28752
0.28727
0.286858
0.286489
0.286052
0.285823
0.285385
0.285144
0.284801
0.284482
0.284237
0.283961
0.28385
0.2836
0.283416
0.28329
0.283152
0.283207
0.283171
0.283189
0.283234
0.283316
0.283484
0.283626
0.283865
0.284125
0.284481
0.284793
0.285295
0.285707
0.286189
0.286747
0.287297
0.287995
0.288665
0.28939
0.290139
0.291007
0.291853
0.292762
0.293656
0.294653
0.295599
0.296584
0.29767
0.298711
0.299818
0.300936
0.302099
0.303281
0.30449
0.305746
0.306978
0.308225
0.309475
0.310757
0.312022
0.313312
0.314607
0.315907
0.317182
0.318454
0.31974
0.321014
0.322271
0.323522
0.32478
0.326001
0.327239
0.328411
0.329609
0.330744
0.331909
0.333025
0.334131
0.335192
0.336264
0.337279
0.338278
0.339253
0.340188
0.3411
0.341982
0.342894
0.343674
0.344502
0.345228
0.345944
0.346678
0.347307
0.347945
0.348573
0.349095
0.349634
0.35013
0.350559
0.351008
0.351375
0.351715
0.352064
0.352283
0.352529
0.352723
0.352894
0.353003
0.353076
0.353104
0.353106
0.353021
0.352957
0.352796
0.352657
0.352525
0.352238
0.351957
0.351644
0.35122
0.350836
0.35029
0.349757
0.34914
0.348489
0.347783
0.347132
0.346274
0.345467
0.344619
0.343677
0.342788
0.34169
0.340646
0.33952
0.338357
0.337139
0.335866
0.3345
0.333176
0.331672
0.330174
0.328627
0.327013
0.325311
0.323657
0.321792
0.319955
0.318021
0.31608
0.313998
0.311979
0.309686
0.307563
0.305148
0.302914
0.300397
0.297944
0.295391
0.29278
0.290132
0.287345
0.284517
0.281624
0.278633
0.275709
0.272522
0.269402
0.266065
0.262848
0.259494
0.256191
0.252583
0.249081
0.245437
0.241891
0.238041
0.234278
0.230423
0.22653
0.222593
0.21854
0.214503
0.210432
0.206304
0.202107
0.198029
0.19364
0.189369
0.1852
0.18073
0.17644
0.172127
0.167797
0.163455
0.159135
0.154816
0.150529
0.146244
0.142017
0.137818
0.133601
0.129561
0.125504
0.121977
0.11628
0.136196
0.132229
0.131427
0.128791
0.125548
0.115815
0.105116
0.115714
0.0598993
0.107897
0.0807113
0.0705015
0.0609436
0.0623854
0.0677385
0.0640936
0.0577316
0.0982426
0.0906521
0.0800223
0.0701334
0.0610063
0.0521513
0.0424342
0.0303396
0.0164623
0.104574
0.161926
0.20398
0.303973
0.351241
0.392664
0.433688
0.474877
0.516842
0.55913
0.601829
0.644448
0.686886
0.728889
0.770289
0.810986
0.850892
0.889933
0.928192
0.965648
1.00231
1.03815
1.0732
1.10783
1.14143
1.17457
1.20712
1.23915
1.27069
1.30177
1.3324
1.36263
1.39244
1.4219
1.45097
1.4797
1.5081
1.53622
1.564
1.59151
1.61869
1.64564
1.67227
1.69864
1.72465
1.75045
1.77594
1.80112
1.82596
1.85088
1.875
1.89909
1.92285
1.94657
1.9695
1.99268
2.01509
2.03745
2.0594
2.0811
2.10275
2.12369
2.14452
2.16502
2.1852
2.20506
2.22459
2.24404
2.26277
2.28141
2.29965
2.31763
2.33523
2.35256
2.36952
2.38621
2.40255
2.4186
2.43425
2.44961
2.46463
2.47934
2.49372
2.50782
2.52156
2.53501
2.5481
2.56092
2.57338
2.58559
2.59744
2.60903
2.62027
2.63124
2.64188
2.65227
2.6623
2.6721
2.68166
2.6908
2.69982
2.70841
2.71678
2.7249
2.73272
2.74031
2.7476
2.75469
2.76147
2.76804
2.77433
2.78041
2.78621
2.7918
2.7972
2.8023
2.80724
2.81187
2.81638
2.82062
2.82467
2.82852
2.83216
2.83565
2.83888
2.84195
2.84485
2.84753
2.85005
2.8524
2.85456
2.8566
2.85844
2.86012
2.86163
2.86303
2.86425
2.86536
2.8664
2.8672
2.8676
2.86811
2.86835
2.86858
2.86864
2.86853
2.86836
2.86807
2.86763
2.86707
2.86635
2.86556
2.86463
2.86361
2.86243
2.8612
2.85978
2.85831
2.85669
2.855
2.85318
2.85128
2.84925
2.84717
2.84493
2.84264
2.84021
2.83772
2.8351
2.83242
2.82961
2.82674
2.82373
2.82067
2.81748
2.81424
2.81085
2.80746
2.80388
2.80029
2.79655
2.79276
2.78885
2.7849
2.78082
2.77669
2.77245
2.76814
2.76371
2.75926
2.75464
2.75001
2.74525
2.74045
2.73553
2.73056
2.72547
2.72033
2.71507
2.70978
2.70436
2.69891
2.69337
2.68772
2.682
2.67623
2.67033
2.6644
2.65836
2.65227
2.64608
2.63988
2.63349
2.62712
2.62061
2.61407
2.60742
2.60075
2.594
2.58713
2.58024
2.57323
2.56621
2.55907
2.55188
2.54465
2.53732
2.52996
2.5225
2.51501
2.50741
2.4998
2.49214
2.48438
2.47656
2.46872
2.46081
2.45282
2.44483
2.43675
2.42862
2.42048
2.41224
2.40399
2.39565
2.38732
2.37883
2.37038
2.36187
2.35352
2.34519
2.33645
2.32807
2.31913
2.3107
2.30181
2.29339
2.28433
2.27581
2.26672
2.2582
2.24906
2.24046
2.23134
2.22261
2.21345
2.20467
2.19536
2.18653
2.17746
2.16925
2.15985
2.15118
2.1419
2.13315
2.12396
2.11525
2.10596
2.09722
2.08794
2.07923
2.07003
2.06125
2.05209
2.04326
2.03406
2.02526
2.01598
2.00716
1.99815
1.99008
1.98076
1.97212
1.96305
1.95443
1.94541
1.93692
1.92789
1.91936
1.91035
1.9018
1.89292
1.88446
1.8756
1.8671
1.85824
1.84975
1.84087
1.8324
1.8237
1.81604
1.80709
1.79895
1.79027
1.78212
1.77352
1.76527
1.75687
1.74867
1.74001
1.7322
1.72368
1.71572
1.70731
1.69906
1.69086
1.68278
1.67439
1.66616
1.65828
1.65087
1.64248
1.63453
1.62654
1.61849
1.61066
1.60262
1.59481
1.587
1.57891
1.57127
1.56322
1.55558
1.54758
1.53991
1.53195
1.52429
1.51626
1.50827
1.50083
1.49359
1.48564
1.47816
1.47026
1.46285
1.45498
1.44728
1.43981
1.4318
1.42445
1.41695
1.40914
1.40137
1.39403
1.38636
1.37862
1.37117
1.36338
1.35594
1.34837
1.34091
1.33347
1.32554
1.3183
1.31076
1.30317
1.29579
1.28814
1.28076
1.27306
1.26574
1.25804
1.25078
1.24314
1.23532
1.22825
1.22072
1.2131
1.20523
1.19824
1.19116
1.18354
1.17587
1.1688
1.16092
1.15394
1.14602
1.13898
1.13162
1.12418
1.11694
1.10949
1.10225
1.09485
1.08758
1.0802
1.07297
1.0656
1.05846
1.05126
1.04398
1.03712
1.02947
1.02265
1.01549
1.00841
1.00143
0.994265
0.987386
0.980292
0.973526
0.966499
0.959282
0.952739
0.945791
0.938978
0.932257
0.925457
0.918829
0.912211
0.905484
0.899241
0.892412
0.886273
0.879814
0.873464
0.867248
0.860894
0.854741
0.848439
0.842361
0.836245
0.830275
0.82392
0.818244
0.812278
0.806178
0.800541
0.794704
0.788944
0.783403
0.777674
0.771892
0.766468
0.760924
0.755486
0.750122
0.744738
0.739299
0.734178
0.728833
0.723815
0.718748
0.713558
0.708663
0.70362
0.698865
0.693923
0.689232
0.684522
0.679834
0.675279
0.670733
0.666229
0.661765
0.657419
0.653167
0.648916
0.644715
0.64056
0.63646
0.632426
0.628408
0.624444
0.620555
0.616781
0.61295
0.609339
0.605605
0.602049
0.598461
0.594951
0.591616
0.588203
0.584801
0.581556
0.578295
0.575023
0.571947
0.56865
0.565463
0.562295
0.55897
0.55546
0.552438
0.549488
0.546784
0.544187
0.541566
0.539062
0.536536
0.533973
0.531849
0.529394
0.527023
0.524829
0.522583
0.520467
0.518309
0.516295
0.514211
0.512252
0.510231
0.508082
0.506623
0.504695
0.502391
0.501297
0.498829
0.497698
0.495586
0.493803
0.491987
0.490274
0.48842
0.48667
0.484802
0.482938
0.481066
0.478608
0.477365
0.47463
0.473098
0.47075
0.468361
0.46559
0.463768
0.461096
0.458434
0.455243
0.452934
0.449996
0.446948
0.443912
0.440818
0.437309
0.434363
0.431099
0.427282
0.424151
0.420642
0.416827
0.413519
0.409747
0.40625
0.402721
0.399134
0.39564
0.392238
0.388604
0.385385
0.381995
0.378855
0.375745
0.372674
0.369576
0.366793
0.363915
0.361267
0.358697
0.356145
0.353803
0.351421
0.349371
0.347294
0.34533
0.343503
0.341683
0.340181
0.338578
0.337104
0.335866
0.334727
0.333748
0.33273
0.331929
0.331197
0.330667
0.330026
0.329717
0.329406
0.329195
0.329148
0.329057
0.329173
0.329423
0.329699
0.330023
0.330564
0.331005
0.331614
0.332269
0.333043
0.333838
0.334628
0.33558
0.336559
0.337603
0.338664
0.339808
0.340974
0.342187
0.343447
0.344749
0.346027
0.347314
0.348652
0.350018
0.351431
0.352625
0.35396
0.35538
0.356783
0.358208
0.359619
0.360988
0.36235
0.363725
0.365035
0.366381
0.36764
0.368954
0.370171
0.37145
0.372644
0.37384
0.374964
0.37612
0.377257
0.37812
0.379103
0.380163
0.381194
0.382175
0.38318
0.384007
0.384888
0.385677
0.386424
0.387218
0.387893
0.388557
0.389225
0.389799
0.390337
0.390866
0.391311
0.391807
0.392271
0.392371
0.392694
0.393023
0.39332
0.393595
0.393819
0.393961
0.394066
0.394094
0.394107
0.394141
0.394098
0.394064
0.393972
0.393938
0.393723
0.393504
0.393277
0.392864
0.392588
0.391925
0.391373
0.390896
0.390402
0.389811
0.389304
0.388557
0.38784
0.387128
0.386286
0.385552
0.384593
0.38368
0.3827
0.381702
0.380633
0.379532
0.378315
0.37719
0.375933
0.374403
0.373025
0.371691
0.370251
0.36889
0.367302
0.365689
0.364018
0.362358
0.360532
0.358841
0.356822
0.355029
0.3529
0.350999
0.348822
0.346674
0.344483
0.342232
0.340009
0.337483
0.335042
0.332614
0.330051
0.327602
0.32487
0.322194
0.319298
0.316516
0.313618
0.310841
0.307734
0.304708
0.301536
0.298536
0.295207
0.291932
0.28861
0.285242
0.281879
0.278309
0.274814
0.27132
0.267773
0.264098
0.260603
0.256775
0.252989
0.249418
0.245502
0.241722
0.237952
0.234155
0.230334
0.226533
0.222701
0.218928
0.215136
0.211395
0.207676
0.203917
0.200302
0.196567
0.193902
0.187226
0.203335
0.182667
0.177354
0.172716
0.181884
0.179718
0.170594
0.151604
0.118644
0.150805
0.141339
0.129308
0.122105
0.120049
0.106338
0.100664
0.0938755
0.121506
0.113333
0.101879
0.0910253
0.080871
0.0708874
0.0597807
0.0456681
0.0282902
0.146057
0.233967
0.295874
0.384798
0.444259
0.497039
0.549166
0.601431
0.654244
0.707404
0.760919
0.814256
0.86726
0.919621
0.971135
1.02169
1.07117
1.11951
1.16681
1.21305
1.25824
1.30235
1.34548
1.38792
1.42916
1.46977
1.5096
1.54875
1.58725
1.62517
1.66249
1.6993
1.73556
1.77138
1.80669
1.84157
1.87602
1.91011
1.94377
1.97708
2.00997
2.04256
2.07474
2.1066
2.13802
2.16917
2.19991
2.23029
2.26028
2.29023
2.31934
2.34836
2.37698
2.40546
2.43313
2.46094
2.48793
2.51481
2.5412
2.5673
2.59322
2.61841
2.64341
2.66801
2.69221
2.71604
2.73947
2.76273
2.7852
2.80753
2.82938
2.8509
2.87197
2.8927
2.91299
2.93294
2.95245
2.97164
2.99032
3.00866
3.02658
3.04414
3.06128
3.07807
3.09443
3.11045
3.12602
3.14126
3.15607
3.17057
3.18463
3.19838
3.2117
3.2247
3.23728
3.24956
3.26142
3.273
3.28424
3.29503
3.30562
3.31572
3.32555
3.33507
3.34423
3.3531
3.36161
3.36987
3.37776
3.38539
3.39268
3.3997
3.40639
3.41284
3.41903
3.42487
3.4305
3.43578
3.44089
3.44567
3.45022
3.45454
3.45858
3.46245
3.466
3.46936
3.4725
3.47538
3.47806
3.48054
3.48278
3.48486
3.48671
3.48837
3.48981
3.49113
3.49221
3.49316
3.49401
3.49461
3.49468
3.49491
3.49478
3.49464
3.49431
3.4938
3.49318
3.4924
3.49145
3.49036
3.48907
3.4877
3.48613
3.48447
3.48262
3.48069
3.47854
3.47632
3.47391
3.47142
3.46877
3.46603
3.46312
3.46015
3.45698
3.45375
3.45035
3.44688
3.44323
3.43953
3.43565
3.4317
3.42758
3.42339
3.41905
3.41466
3.41006
3.40547
3.40065
3.39581
3.39079
3.38571
3.38047
3.37518
3.36974
3.36423
3.35858
3.35286
3.34698
3.34108
3.33496
3.32884
3.32255
3.31622
3.30973
3.30318
3.29648
3.28973
3.28283
3.27588
3.26877
3.26163
3.25438
3.24699
3.23952
3.23197
3.22429
3.21655
3.20867
3.20075
3.19269
3.18461
3.17632
3.16803
3.15959
3.15111
3.14249
3.13384
3.12508
3.11621
3.10728
3.09823
3.08914
3.07992
3.07064
3.06131
3.05186
3.04236
3.03275
3.0231
3.01333
3.00353
2.99366
2.98369
2.97365
2.96357
2.95342
2.94318
2.93291
2.92255
2.91214
2.9017
2.89115
2.88059
2.86993
2.85927
2.84846
2.83768
2.82686
2.81609
2.80534
2.79422
2.7835
2.77214
2.76151
2.75003
2.7392
2.7278
2.71695
2.7054
2.69454
2.68296
2.67201
2.66037
2.64951
2.63781
2.62673
2.61505
2.60399
2.59241
2.58171
2.56993
2.55895
2.54728
2.53633
2.52462
2.51355
2.50198
2.49097
2.47932
2.46836
2.45681
2.4458
2.43425
2.4234
2.41181
2.40085
2.38936
2.37848
2.36713
2.35674
2.34523
2.33449
2.32322
2.3126
2.30132
2.2907
2.27962
2.26907
2.25794
2.24741
2.23646
2.22603
2.21507
2.20481
2.19388
2.18355
2.17276
2.16254
2.15183
2.14216
2.13136
2.12144
2.11091
2.10109
2.09058
2.0806
2.07047
2.06061
2.05024
2.04078
2.03056
2.02102
2.01088
2.00127
1.99138
1.98182
1.9719
1.96233
1.95282
1.94378
1.93392
1.92461
1.91513
1.90583
1.89647
1.8871
1.87795
1.86886
1.85943
1.85054
1.84117
1.83233
1.82299
1.81429
1.80504
1.79626
1.78705
1.77809
1.76936
1.76087
1.75182
1.74327
1.73427
1.72589
1.71686
1.70815
1.69962
1.69071
1.68228
1.67382
1.66499
1.65634
1.64792
1.63949
1.63073
1.62242
1.61373
1.60547
1.59687
1.58848
1.5801
1.57138
1.56322
1.55492
1.54638
1.53814
1.52967
1.52149
1.51293
1.5048
1.49625
1.48818
1.47963
1.47124
1.46322
1.45492
1.44649
1.43795
1.43002
1.42205
1.41361
1.40524
1.39728
1.38875
1.38083
1.37214
1.36429
1.35615
1.34787
1.33985
1.33157
1.32356
1.31527
1.30732
1.29905
1.29105
1.28284
1.27493
1.2668
1.25873
1.25097
1.24256
1.23486
1.22694
1.21894
1.21109
1.20311
1.1954
1.18743
1.17982
1.17189
1.16389
1.15639
1.14871
1.14096
1.13339
1.12572
1.11825
1.11068
1.10312
1.09596
1.08832
1.08128
1.07404
1.06676
1.05964
1.05244
1.04543
1.03824
1.0313
1.02429
1.01745
1.01021
1.00375
0.996826
0.989897
0.983353
0.976657
0.969966
0.963557
0.956935
0.950307
0.943984
0.937633
0.931264
0.924995
0.918769
0.91249
0.906481
0.900286
0.894399
0.888472
0.882404
0.876747
0.870814
0.865218
0.859447
0.853928
0.848344
0.84286
0.837484
0.832123
0.82681
0.821594
0.816408
0.811332
0.806328
0.801345
0.796414
0.791542
0.786744
0.781961
0.777226
0.772658
0.768107
0.763539
0.759199
0.754747
0.750462
0.746191
0.741999
0.737955
0.733872
0.729826
0.725878
0.72191
0.718013
0.714258
0.710322
0.706456
0.70259
0.698582
0.694488
0.690901
0.687238
0.683717
0.680322
0.676897
0.673591
0.670292
0.666965
0.664034
0.66083
0.657721
0.654748
0.651718
0.648902
0.645993
0.643259
0.640431
0.637744
0.634989
0.632123
0.629956
0.627304
0.62427
0.62241
0.619239
0.617321
0.614509
0.61197
0.609381
0.606915
0.604294
0.601717
0.599003
0.596326
0.593592
0.590305
0.588081
0.584525
0.581961
0.578679
0.575357
0.571564
0.568597
0.564897
0.561122
0.556842
0.553321
0.549226
0.544948
0.540666
0.536324
0.531516
0.527169
0.522623
0.517466
0.512922
0.508047
0.502865
0.498096
0.492935
0.488048
0.48309
0.478076
0.473169
0.468341
0.463367
0.458742
0.454001
0.449468
0.445017
0.440633
0.436242
0.432137
0.428049
0.424152
0.420387
0.416655
0.413168
0.409666
0.406492
0.403385
0.400385
0.397546
0.394779
0.392302
0.389865
0.387518
0.385409
0.38343
0.381664
0.379905
0.378388
0.37697
0.375807
0.374552
0.37365
0.372799
0.372076
0.371547
0.370997
0.370698
0.370558
0.370473
0.370483
0.370675
0.370961
0.371319
0.371721
0.372238
0.372821
0.373431
0.374232
0.37508
0.376035
0.377014
0.378095
0.379213
0.380399
0.381627
0.382918
0.384196
0.38551
0.386863
0.388271
0.389705
0.391057
0.392442
0.393886
0.395323
0.396802
0.398265
0.399722
0.401147
0.402611
0.403997
0.405421
0.406754
0.408148
0.409439
0.410785
0.41205
0.413335
0.414523
0.415745
0.416924
0.417966
0.419001
0.420081
0.421136
0.422154
0.42318
0.424071
0.424972
0.425816
0.426594
0.427413
0.428128
0.42882
0.429501
0.430094
0.430637
0.431195
0.431647
0.432148
0.432602
0.432849
0.433159
0.433438
0.433688
0.433941
0.434135
0.434283
0.434358
0.434378
0.434386
0.434397
0.434338
0.434248
0.43416
0.434067
0.433854
0.433573
0.433306
0.432853
0.432539
0.431936
0.431308
0.430725
0.430144
0.429491
0.428917
0.428163
0.427374
0.426631
0.425749
0.424978
0.423995
0.423037
0.422016
0.420977
0.41987
0.418766
0.417517
0.416363
0.415076
0.413617
0.412184
0.410784
0.409296
0.407907
0.40632
0.404712
0.403023
0.401374
0.399551
0.397869
0.395873
0.394079
0.391982
0.390071
0.387946
0.385839
0.383686
0.38148
0.379294
0.376898
0.374478
0.372073
0.369549
0.367165
0.364528
0.361945
0.359127
0.356419
0.353624
0.350952
0.347981
0.345056
0.341998
0.339102
0.335942
0.332799
0.32961
0.32638
0.323152
0.319751
0.31636
0.312986
0.309589
0.306061
0.302726
0.299088
0.29541
0.291986
0.288234
0.28457
0.280932
0.277267
0.273562
0.269857
0.266151
0.262471
0.258751
0.255066
0.251388
0.24764
0.243992
0.240244
0.237347
0.231862
0.238998
0.222298
0.215394
0.209768
0.216952
0.214384
0.208874
0.18799
0.171823
0.184911
0.181017
0.170092
0.163113
0.157618
0.141543
0.133049
0.125183
0.140727
0.131276
0.118719
0.106635
0.0951881
0.0839121
0.0714293
0.0556442
0.035887
0.179336
0.282778
0.358347
0.442447
0.508701
0.569205
0.628854
0.688627
0.748932
0.809592
0.870551
0.931257
0.991512
1.05098
1.10942
1.16673
1.22278
1.27752
1.33103
1.38331
1.43438
1.48421
1.53291
1.58076
1.62731
1.6731
1.718
1.76211
1.80549
1.84818
1.8902
1.93161
1.97242
2.01269
2.05241
2.09162
2.13035
2.16864
2.20647
2.24387
2.28083
2.31739
2.35353
2.38928
2.42455
2.45947
2.49398
2.52804
2.56171
2.59521
2.6279
2.66042
2.69253
2.72437
2.75545
2.78653
2.81682
2.84691
2.8765
2.90573
2.93471
2.96292
2.99092
3.01844
3.04554
3.07219
3.09845
3.12439
3.14958
3.17455
3.199
3.22304
3.24662
3.26977
3.29247
3.31475
3.33658
3.35799
3.37888
3.39936
3.41939
3.43898
3.45813
3.47686
3.49514
3.51299
3.53039
3.54737
3.56391
3.58005
3.59575
3.61105
3.62592
3.64038
3.65442
3.66807
3.6813
3.69417
3.70668
3.71867
3.73045
3.74166
3.75261
3.76316
3.77334
3.78316
3.79263
3.80176
3.81052
3.81895
3.82703
3.83477
3.84219
3.8493
3.85613
3.86256
3.86877
3.87457
3.88019
3.88542
3.89042
3.89513
3.89957
3.90375
3.90764
3.91128
3.91469
3.91777
3.92067
3.92331
3.92572
3.92791
3.92987
3.93159
3.9331
3.93442
3.93553
3.93642
3.93725
3.93777
3.93776
3.93783
3.93761
3.93729
3.9368
3.93608
3.93527
3.93422
3.93304
3.93165
3.9301
3.92838
3.9265
3.92446
3.92227
3.91993
3.9174
3.91474
3.91191
3.90894
3.90584
3.90258
3.89919
3.89568
3.89199
3.8882
3.88424
3.88016
3.87594
3.8716
3.86711
3.86249
3.85773
3.85284
3.84783
3.84271
3.83742
3.83206
3.82652
3.82089
3.81511
3.80921
3.80319
3.79705
3.79079
3.78442
3.77792
3.7713
3.76455
3.75771
3.7507
3.74362
3.7364
3.72909
3.72165
3.71409
3.70641
3.69861
3.69071
3.68269
3.67455
3.66632
3.658
3.64951
3.64095
3.63225
3.62346
3.61455
3.60554
3.59642
3.58721
3.5779
3.56843
3.5589
3.54925
3.5395
3.52965
3.51971
3.50969
3.49951
3.4893
3.47892
3.46852
3.45795
3.44735
3.43664
3.42585
3.41496
3.40398
3.39291
3.38176
3.37053
3.35925
3.34783
3.33638
3.32483
3.31324
3.30152
3.28979
3.27794
3.26606
3.2541
3.24208
3.22999
3.21784
3.20564
3.19334
3.18103
3.16871
3.15642
3.14403
3.13134
3.11904
3.10617
3.09394
3.08091
3.06866
3.05548
3.04318
3.03002
3.01761
3.00443
2.99188
2.97881
2.96623
2.95298
2.94038
2.92706
2.91458
2.90148
2.88901
2.87565
2.86307
2.84987
2.83733
2.82407
2.81157
2.79825
2.7858
2.77256
2.76009
2.74696
2.73441
2.72146
2.70896
2.69587
2.68346
2.6704
2.65816
2.64538
2.63328
2.6203
2.60807
2.59536
2.58326
2.57054
2.55859
2.54589
2.53403
2.52144
2.50954
2.49715
2.48531
2.47309
2.46134
2.44907
2.43743
2.42524
2.41381
2.40184
2.39065
2.37855
2.36731
2.35552
2.34439
2.33263
2.32153
2.30996
2.29897
2.28737
2.27669
2.26525
2.25448
2.24327
2.23242
2.22136
2.2107
2.19959
2.18904
2.17841
2.16809
2.15714
2.14675
2.13618
2.12581
2.11536
2.10508
2.09472
2.08468
2.0742
2.06432
2.05392
2.04407
2.03385
2.02408
2.01387
2.00416
1.99396
1.98421
1.97453
1.96497
1.95499
1.94551
1.93563
1.92631
1.91638
1.90692
1.89731
1.88768
1.8783
1.86898
1.85928
1.84982
1.84059
1.83124
1.82166
1.81255
1.80299
1.79397
1.78457
1.7753
1.76604
1.75657
1.74756
1.73843
1.7291
1.72014
1.71076
1.70185
1.69247
1.68356
1.67421
1.66531
1.65605
1.64687
1.63801
1.62895
1.6197
1.61053
1.60179
1.59292
1.58369
1.57457
1.56578
1.55652
1.54774
1.53844
1.52964
1.52077
1.51169
1.5029
1.49382
1.48501
1.47602
1.46721
1.45815
1.44938
1.44035
1.43171
1.42282
1.41393
1.40531
1.39616
1.38764
1.37891
1.37012
1.36155
1.35268
1.34423
1.33545
1.32704
1.3183
1.30955
1.30129
1.29276
1.28423
1.27589
1.26739
1.25918
1.25086
1.2425
1.23451
1.22613
1.2183
1.21028
1.20225
1.19441
1.18637
1.17864
1.17067
1.16299
1.1552
1.14758
1.13971
1.1324
1.12472
1.11709
1.10975
1.10236
1.09498
1.08777
1.08041
1.07306
1.06601
1.05892
1.05184
1.0449
1.03789
1.03096
1.02423
1.01735
1.01075
1.00411
0.997436
0.991028
0.984442
0.978168
0.97172
0.965569
0.959367
0.95319
0.947168
0.941147
0.935224
0.92936
0.923568
0.91791
0.912239
0.906675
0.901146
0.895675
0.890291
0.884904
0.87966
0.874455
0.869358
0.864232
0.859312
0.854339
0.849557
0.844707
0.839994
0.835388
0.830822
0.826241
0.821801
0.817352
0.812918
0.808669
0.804255
0.799886
0.795529
0.791031
0.786583
0.78247
0.778401
0.774393
0.770506
0.766622
0.762896
0.759085
0.755316
0.751874
0.748258
0.744679
0.741285
0.737839
0.734555
0.731232
0.728082
0.724824
0.721718
0.718522
0.715326
0.712644
0.709625
0.706198
0.703851
0.700347
0.697991
0.69475
0.691793
0.688754
0.685889
0.682809
0.679806
0.676662
0.67348
0.670281
0.666567
0.663747
0.659785
0.656597
0.652862
0.648955
0.644651
0.641007
0.636729
0.632353
0.627534
0.623252
0.618511
0.613538
0.608572
0.603492
0.598
0.592863
0.587532
0.581661
0.576287
0.570621
0.564679
0.559038
0.553139
0.547375
0.541611
0.535771
0.530035
0.524386
0.518668
0.513177
0.507652
0.502287
0.497058
0.491877
0.486751
0.481881
0.477043
0.472412
0.467931
0.4635
0.459325
0.455157
0.451336
0.447563
0.443955
0.440507
0.437171
0.434113
0.431171
0.428285
0.425654
0.423155
0.420913
0.418704
0.416759
0.414937
0.413351
0.411753
0.410483
0.409305
0.408274
0.407438
0.406653
0.406079
0.405709
0.405392
0.405219
0.405252
0.405442
0.405636
0.405911
0.406278
0.406745
0.40727
0.407999
0.408797
0.409693
0.410651
0.411716
0.412827
0.414024
0.415249
0.416578
0.417872
0.419241
0.420635
0.422089
0.423573
0.425044
0.426491
0.427995
0.429486
0.431038
0.432568
0.434115
0.435629
0.437156
0.438633
0.44014
0.441555
0.443032
0.444396
0.44584
0.447173
0.448545
0.449811
0.451098
0.45234
0.453515
0.454616
0.455751
0.456845
0.457922
0.458986
0.459946
0.4609
0.461779
0.462611
0.463465
0.464231
0.464961
0.465657
0.466308
0.466863
0.467452
0.467926
0.468433
0.468903
0.469238
0.469554
0.469832
0.470058
0.47031
0.470489
0.470638
0.470734
0.470745
0.470743
0.470728
0.470648
0.470529
0.470418
0.470312
0.470069
0.469765
0.469464
0.468993
0.46862
0.468062
0.467404
0.466759
0.466105
0.465406
0.464752
0.463977
0.46315
0.462336
0.461414
0.460575
0.459561
0.458553
0.457466
0.456394
0.455215
0.454061
0.452764
0.45153
0.450195
0.448748
0.447257
0.445782
0.444214
0.442742
0.441103
0.439442
0.437708
0.435985
0.434117
0.432363
0.430341
0.428472
0.426338
0.42437
0.422196
0.420041
0.417834
0.41557
0.413324
0.410946
0.408482
0.406021
0.403437
0.40099
0.39832
0.395693
0.392879
0.390113
0.387282
0.384553
0.381587
0.378631
0.375535
0.372609
0.36944
0.366269
0.363054
0.359791
0.356537
0.353166
0.349743
0.346326
0.342892
0.339346
0.335943
0.332314
0.328619
0.325121
0.321369
0.317656
0.313964
0.310251
0.306482
0.302741
0.298948
0.295187
0.291382
0.287592
0.283812
0.279982
0.276184
0.272299
0.269048
0.264345
0.266211
0.253614
0.246804
0.241016
0.244399
0.241153
0.237321
0.219207
0.210531
0.2128
0.209784
0.199936
0.192424
0.185045
0.169129
0.158893
0.149662
0.156572
0.145951
0.132368
0.119115
0.106481
0.0940557
0.0804073
0.0633559
0.0418512
0.207364
0.320111
0.404992
0.489093
0.560418
0.626957
0.692531
0.758228
0.824461
0.891043
0.957859
1.02435
1.09028
1.15529
1.21915
1.28171
1.34288
1.40259
1.46094
1.51792
1.57355
1.62783
1.68088
1.73293
1.78361
1.83344
1.88229
1.93027
1.97744
2.02385
2.06953
2.11455
2.1589
2.20266
2.2458
2.28841
2.33047
2.37207
2.41314
2.45375
2.49387
2.53356
2.57277
2.61157
2.64985
2.68775
2.72517
2.76214
2.79867
2.83497
2.87045
2.90573
2.94054
2.97504
3.00877
3.04243
3.07528
3.1079
3.13997
3.17167
3.20302
3.23363
3.26396
3.29378
3.32314
3.35202
3.38045
3.40853
3.43583
3.46288
3.48935
3.51539
3.54091
3.56599
3.59055
3.61468
3.6383
3.66148
3.68408
3.70625
3.72792
3.74912
3.76984
3.79011
3.80987
3.82919
3.84799
3.86637
3.88425
3.90171
3.91867
3.93522
3.95128
3.96692
3.98208
3.99684
4.01112
4.02503
4.03852
4.05149
4.06418
4.0763
4.08811
4.0995
4.11048
4.12108
4.13128
4.14113
4.15056
4.15965
4.16834
4.17669
4.18467
4.19233
4.19966
4.20658
4.21324
4.21949
4.22551
4.23113
4.23649
4.24153
4.24628
4.25076
4.2549
4.2588
4.26242
4.26571
4.26879
4.27159
4.27413
4.27645
4.2785
4.28031
4.28188
4.28325
4.28437
4.28527
4.28606
4.28658
4.28647
4.28648
4.28622
4.2858
4.2852
4.28436
4.28339
4.28219
4.28083
4.27926
4.2775
4.27557
4.27344
4.27117
4.26871
4.26611
4.26327
4.26033
4.25717
4.25389
4.25043
4.24683
4.24307
4.23919
4.2351
4.23091
4.22653
4.22204
4.21736
4.21258
4.20761
4.20253
4.19727
4.1919
4.18637
4.18073
4.1749
4.16901
4.1629
4.15671
4.15035
4.14387
4.13724
4.1305
4.12361
4.11661
4.10946
4.10219
4.09477
4.08727
4.07956
4.07179
4.06386
4.05583
4.04765
4.03936
4.03092
4.02238
4.01369
4.0049
3.99597
3.98695
3.9778
3.96849
3.95909
3.94957
3.93991
3.93016
3.92026
3.91028
3.90016
3.88996
3.87958
3.86914
3.85855
3.84788
3.83707
3.82619
3.81519
3.80405
3.79285
3.78149
3.77008
3.75852
3.74689
3.73517
3.72334
3.71142
3.69939
3.68728
3.67506
3.66277
3.6504
3.63791
3.62536
3.61273
3.60002
3.58721
3.57435
3.56139
3.54838
3.5353
3.52213
3.50891
3.49561
3.48226
3.46881
3.45535
3.44186
3.42835
3.41481
3.40094
3.38759
3.37336
3.36003
3.34579
3.33231
3.31801
3.30451
3.29012
3.27654
3.26209
3.24853
3.23407
3.22035
3.20585
3.19214
3.17771
3.16396
3.14953
3.13591
3.12135
3.10769
3.09313
3.07947
3.06498
3.05126
3.03681
3.02316
3.00872
2.99508
2.9807
2.96714
2.95285
2.93924
2.92493
2.91144
2.89731
2.88385
2.86979
2.85659
2.84246
2.82921
2.81521
2.80205
2.78818
2.77509
2.76133
2.74834
2.73463
2.72166
2.70811
2.69534
2.68189
2.66912