/*--------------------------------*- C++ -*----------------------------------*\
  =========                 |
  \\      /  F ield         | OpenFOAM: The Open Source CFD Toolbox
   \\    /   O peration     | Website:  https://openfoam.org
    \\  /    A nd           | Version:  9
     \\/     M anipulation  |
\*---------------------------------------------------------------------------*/
FoamFile
{
    format      ascii;
    class       volScalarField;
    location    "1282";
    object      nut;
}
// * * * * * * * * * * * * * * * * * * * * * * * * * * * * * * * * * * * * * //

dimensions      [0 2 -1 0 0 0 0];

internalField   nonuniform List<scalar> 
204073
(
1.94578e-05
1.33708e-05
1.6583e-05
8.95158e-05
9.1406e-05
9.64677e-05
0.000100934
0.000105157
0.000110193
0.000115094
0.000119928
0.000124627
0.00012919
0.000133616
0.0001379
0.000142038
0.000146034
0.000149895
0.000153628
0.00015724
0.000160739
0.000164123
0.000167389
0.000170612
0.000173687
0.000176709
0.000179632
0.000182513
0.000185302
0.000188056
0.00019072
0.000193356
0.000195909
0.000198438
0.000200887
0.00020331
0.00020567
0.000208011
0.000210283
0.000212543
0.000214732
0.000216918
0.000219033
0.000221141
0.000223177
0.000225213
0.000227184
0.000229148
0.000231028
0.000232963
0.000234773
0.000236607
0.000238363
0.000240165
0.000241833
0.00024357
0.000245194
0.000246838
0.000248416
0.000249989
0.000251547
0.00025306
0.00025453
0.000255999
0.000257411
0.000258831
0.000260172
0.000261562
0.000262847
0.000264157
0.000265403
0.000266662
0.000267857
0.000269066
0.000270213
0.000271374
0.000272472
0.000273582
0.000274633
0.000275692
0.000276695
0.000277708
0.000278664
0.000279637
0.000280549
0.000281478
0.000282345
0.000283231
0.000284057
0.000284903
0.000285689
0.000286495
0.000287244
0.000288008
0.000288717
0.000289447
0.000290122
0.000290808
0.000291458
0.000292102
0.000292716
0.000293333
0.000293905
0.000294494
0.000295036
0.000295595
0.000296104
0.000296634
0.000297113
0.000297611
0.000298064
0.000298535
0.000298962
0.0002994
0.000299803
0.000300218
0.000300601
0.000300983
0.000301333
0.000301704
0.000302032
0.000302381
0.000302683
0.000303017
0.000303298
0.0003036
0.000303861
0.000304146
0.000304392
0.00030466
0.000304882
0.000305131
0.000305338
0.00030557
0.000305757
0.000305974
0.000306148
0.000306351
0.00030652
0.000306704
0.000306837
0.00030701
0.000307122
0.000307286
0.000307394
0.000307539
0.000307632
0.000307765
0.000307854
0.00030797
0.000308046
0.000308145
0.00030821
0.000308303
0.000308356
0.000308429
0.00030847
0.00030854
0.000308568
0.000308625
0.000308643
0.000308692
0.000308701
0.000308733
0.000308732
0.000308759
0.000308747
0.000308764
0.000308743
0.00030875
0.000308718
0.000308715
0.000308673
0.000308661
0.000308613
0.000308589
0.00030853
0.000308499
0.000308427
0.000308389
0.00030831
0.00030826
0.000308172
0.000308116
0.00030802
0.000307952
0.000307847
0.000307773
0.000307657
0.000307575
0.000307449
0.000307357
0.000307224
0.000307123
0.000306982
0.000306872
0.000306722
0.000306603
0.000306444
0.000306316
0.000306149
0.000306012
0.00030584
0.000305692
0.000305508
0.000305353
0.00030516
0.000304997
0.000304795
0.000304623
0.000304411
0.000304236
0.000304014
0.000303825
0.000303597
0.000303398
0.000303162
0.000302953
0.000302715
0.000302492
0.000302247
0.000302015
0.000301762
0.000301525
0.000301255
0.000301014
0.000300735
0.000300485
0.000300198
0.000299939
0.000299643
0.000299373
0.000299078
0.0002988
0.000298488
0.0002982
0.000297888
0.000297587
0.000297269
0.000296966
0.000296632
0.000296325
0.000295982
0.000295665
0.000295309
0.000294995
0.000294632
0.000294302
0.000293937
0.000293525
0.000293242
0.000292873
0.000292517
0.000292137
0.000291778
0.000291394
0.000291024
0.000290629
0.000290251
0.000289848
0.000289476
0.000289065
0.000288675
0.000288263
0.000287878
0.000287451
0.000287049
0.000286623
0.000286222
0.000285644
0.000285378
0.00028493
0.000284517
0.000284071
0.000283648
0.000283194
0.000282771
0.000282308
0.000281872
0.00028141
0.000280967
0.000280505
0.000280052
0.000279588
0.000279135
0.000278652
0.000278193
0.000277716
0.000277254
0.000276624
0.000276301
0.000275804
0.000275327
0.000274833
0.000274356
0.000273849
0.000273364
0.000272858
0.000272369
0.000271861
0.00027136
0.000270843
0.000270341
0.000269824
0.000269321
0.00026879
0.000268275
0.000267746
0.000267238
0.000266552
0.000266177
0.000265619
0.000265098
0.000264547
0.000264022
0.000263472
0.000262913
0.000262369
0.000261827
0.000261233
0.000260704
0.000260127
0.000259577
0.000259019
0.000258427
0.000257855
0.000257279
0.00025671
0.000256099
0.000255398
0.000254939
0.000254343
0.000253719
0.000253145
0.000252507
0.000251931
0.000251277
0.000250681
0.000250063
0.000249429
0.000248815
0.000248173
0.000247546
0.000246897
0.00024626
0.000245594
0.000244951
0.000244313
0.000243606
0.000242847
0.00024229
0.000241607
0.000240938
0.000240241
0.000239569
0.000238886
0.000238134
0.000237494
0.000236712
0.000236032
0.000235329
0.000234615
0.000233825
0.000233135
0.000232395
0.00023164
0.000230903
0.000230138
0.000229395
0.00022856
0.000227833
0.000227117
0.00022626
0.000225514
0.000224721
0.000223931
0.000223137
0.000222326
0.000221529
0.000220693
0.000219891
0.000219054
0.000218237
0.000217429
0.000216521
0.000215719
0.000214877
0.000214049
0.000213101
0.000212185
0.00021143
0.000210593
0.00020963
0.000208846
0.000207865
0.000207066
0.000206067
0.000205223
0.000204312
0.000203412
0.000202509
0.000201591
0.000200687
0.000199751
0.000198842
0.000197904
0.000196972
0.000196034
0.000195108
0.000194104
0.000193182
0.000192332
0.000191289
0.000190387
0.00018943
0.000188479
0.000187529
0.000186568
0.000185618
0.000184652
0.000183707
0.000182779
0.000181735
0.000180821
0.000179855
0.000178887
0.000177927
0.000176959
0.000176004
0.000174986
0.00017405
0.000173166
0.000172131
0.000171226
0.000170278
0.000169315
0.00016838
0.000167426
0.00016649
0.000165538
0.000164602
0.000163663
0.000162761
0.000161762
0.000160875
0.000159965
0.000158989
0.000158097
0.000157183
0.000156172
0.000155365
0.000154468
0.000153522
0.000152641
0.000151753
0.000150854
0.000149973
0.000149105
0.0001482
0.000147352
0.000146452
0.000145599
0.000144757
0.000143876
0.000143053
0.000142185
0.000141368
0.000140531
0.000139704
0.000138803
0.000138073
0.000137272
0.000136473
0.000135671
0.000134885
0.000134106
0.000133328
0.000132558
0.000131799
0.000131039
0.000130287
0.000129542
0.000128807
0.000128065
0.000127367
0.00012664
0.000125918
0.000125251
0.000124533
0.000123753
0.000123149
0.000122462
0.000121838
0.000121166
0.000120501
0.000119845
0.000119222
0.000118584
0.000117967
0.00011727
0.000116695
0.000116209
0.000115541
0.000114522
0.000113883
0.000113266
0.000113273
0.000113292
0.000113316
0.00011327
0.000113389
0.000113433
0.000113568
0.000113589
0.000113653
0.000113733
0.000113819
0.000113916
0.000114016
0.00011414
0.000114253
0.000114396
0.00011451
0.000114616
0.000114882
0.000114978
0.000115085
0.0001154
0.000115428
0.000115689
0.000115883
0.000116072
0.000116263
0.000116475
0.000116682
0.000116893
0.000117092
0.000117319
0.000117514
0.000117637
0.000118014
0.000118068
0.000118422
0.000118553
0.000118725
0.000118842
0.000119164
0.000119265
0.000119411
0.000119395
0.000119747
0.00011982
0.000119924
0.000120029
0.000120121
0.000120139
0.000120319
0.000120322
0.000120303
0.000120423
0.000120393
0.000120345
0.000120396
0.00012029
0.000120338
0.000120268
0.000120214
0.000120154
0.000120101
0.000119931
0.000120018
0.000119859
0.000119864
0.000119755
0.000119676
0.000119558
0.000119567
0.000119426
0.000119425
0.000119331
0.000119263
0.000119207
0.000119138
0.000119165
0.000119077
0.000119035
0.000119009
0.000118956
0.000119012
0.000118943
0.000118997
0.000119001
0.000119017
0.00011906
0.00011909
0.000119136
0.000119193
0.000119269
0.000119316
0.000119459
0.000119526
0.000119632
0.000119751
0.000119853
0.000120033
0.00012016
0.000120313
0.000120463
0.000120674
0.000120784
0.000121023
0.000121199
0.000121441
0.000121623
0.000121817
0.000122069
0.00012227
0.000122498
0.000122732
0.000122971
0.000123217
0.00012346
0.000123738
0.000123978
0.000124233
0.000124481
0.000124762
0.000125011
0.000125273
0.000125483
0.0001258
0.000126056
0.000126305
0.000126578
0.000126828
0.000127079
0.000127333
0.000127583
0.000127826
0.000128069
0.000128311
0.000128533
0.000128771
0.00012899
0.000129219
0.000129434
0.000129644
0.000129852
0.000130055
0.000130191
0.00013044
0.00013062
0.0001308
0.000130972
0.00013115
0.000131301
0.000131464
0.000131605
0.000131741
0.000131883
0.000132006
0.000132133
0.000132259
0.000132355
0.000132462
0.000132558
0.000132646
0.00013273
0.000132798
0.000132814
0.000132943
0.000132976
0.000133033
0.000133067
0.000133107
0.000133129
0.000133145
0.000133156
0.000133161
0.000133147
0.000133137
0.0001331
0.000133079
0.000133064
0.000132993
0.000132955
0.000132904
0.000132824
0.000132757
0.000132589
0.000132556
0.000132438
0.000132318
0.000132184
0.000132072
0.000131891
0.000131751
0.000131595
0.000131414
0.000131254
0.00013103
0.000130837
0.000130625
0.000130403
0.000130172
0.000129927
0.000129662
0.000129418
0.000129105
0.000128772
0.000128527
0.000128215
0.000127882
0.000127572
0.00012718
0.000126831
0.000126444
0.000126066
0.000125646
0.000125255
0.000124765
0.000124366
0.000123845
0.000123435
0.000122887
0.000122404
0.000121883
0.000121347
0.000120804
0.000120169
0.000119619
0.000119007
0.000118374
0.00011777
0.000117061
0.000116399
0.000115655
0.000114987
0.000114259
0.00011355
0.000112708
0.000111948
0.000111122
0.000110342
0.000109423
0.000108578
0.000107678
0.000106769
0.000105836
0.000104828
0.000103896
0.000102912
0.000101897
0.000100857
9.98606e-05
9.87127e-05
9.76383e-05
9.65786e-05
9.53755e-05
9.42531e-05
9.31011e-05
9.19284e-05
9.0735e-05
8.95351e-05
8.83173e-05
8.70936e-05
8.58481e-05
8.46086e-05
8.33553e-05
8.20461e-05
8.08881e-05
7.95473e-05
7.89575e-05
7.38841e-05
0.00050462
9.77801e-05
9.5031e-05
8.99111e-05
0.000520175
0.0004766
0.000301548
5.159e-05
2.05817e-05
0.000421892
0.000211426
0.000152811
0.000129332
0.0001354
2.47822e-05
2.37141e-05
2.08798e-05
0.000280997
0.00026299
0.000232515
0.000203733
0.000177305
0.000151538
0.000123287
8.81186e-05
4.7801e-05
0.000136067
0.000478944
0.000460865
0.000872994
0.000996703
0.00104916
0.00110894
0.00116707
0.00120577
0.00124262
0.00127804
0.00131179
0.00134385
0.00137418
0.0014028
0.00142969
0.00145492
0.00147862
0.00150085
0.00152179
0.00154151
0.00156005
0.00157749
0.00159431
0.00160996
0.00162483
0.00163912
0.00165276
0.0016659
0.00167849
0.00169067
0.00170238
0.00171376
0.00172473
0.00173543
0.00174575
0.0017559
0.00176575
0.00177543
0.00178484
0.0017941
0.00180316
0.00181208
0.00182079
0.00182934
0.00183771
0.00184599
0.00185401
0.0018619
0.00186994
0.00187752
0.00188497
0.00189238
0.00189985
0.00190686
0.00191403
0.00192088
0.0019276
0.00193423
0.00194069
0.00194736
0.00195358
0.00195975
0.0019658
0.00197176
0.00197757
0.00198324
0.00198901
0.0019944
0.00199968
0.0020049
0.00200998
0.00201495
0.0020198
0.00202453
0.00202915
0.00203367
0.00203805
0.0020423
0.00204639
0.00205039
0.00205424
0.002058
0.00206163
0.00206517
0.00206857
0.00207185
0.00207499
0.00207803
0.00208094
0.00208376
0.00208644
0.00208904
0.00209149
0.00209385
0.00209608
0.00209821
0.00210018
0.00210219
0.00210389
0.00210568
0.00210722
0.00210871
0.00211007
0.00211136
0.00211251
0.00211359
0.00211456
0.00211546
0.00211623
0.00211695
0.00211752
0.00211803
0.00211838
0.00211877
0.00211896
0.00211918
0.00211914
0.00211917
0.00211902
0.00211886
0.00211856
0.00211822
0.00211782
0.00211732
0.0021167
0.00211609
0.00211531
0.00211455
0.00211367
0.00211274
0.00211172
0.00211069
0.00210954
0.00210835
0.00210708
0.00210578
0.0021044
0.00210311
0.00210165
0.0021
0.00209835
0.00209662
0.00209488
0.00209313
0.00209123
0.00208936
0.00208743
0.00208549
0.00208343
0.00208134
0.00207918
0.00207701
0.00207477
0.00207249
0.00207015
0.00206777
0.00206534
0.00206288
0.00206035
0.00205781
0.00205519
0.00205254
0.00204986
0.0020471
0.00204435
0.00204151
0.00203866
0.00203577
0.00203282
0.00202985
0.00202682
0.00202377
0.00202065
0.00201751
0.00201432
0.00201109
0.00200782
0.00200451
0.00200117
0.00199779
0.00199434
0.00199088
0.00198737
0.00198383
0.00198024
0.00197663
0.00197297
0.00196926
0.00196554
0.00196175
0.00195793
0.00195408
0.0019502
0.00194628
0.00194232
0.00193832
0.00193428
0.0019302
0.00192609
0.00192194
0.00191774
0.00191357
0.00190929
0.001905
0.00190067
0.00189631
0.00189189
0.00188746
0.00188298
0.00187848
0.00187398
0.00186939
0.00186477
0.00186013
0.00185544
0.00185073
0.00184597
0.00184125
0.0018364
0.0018316
0.00182668
0.00182183
0.00181686
0.00181189
0.0018069
0.00180188
0.00179683
0.00179175
0.00178663
0.00178149
0.00177631
0.00177119
0.00176596
0.00176071
0.00175544
0.0017502
0.00174485
0.00173957
0.00173421
0.00172884
0.00172347
0.00171806
0.00171264
0.00170719
0.00170177
0.00169626
0.00169076
0.00168527
0.00167979
0.00167431
0.00166868
0.0016633
0.00165751
0.00165199
0.00164641
0.00164107
0.00163526
0.00162982
0.00162404
0.00161866
0.00161288
0.00160745
0.00160175
0.00159614
0.00159055
0.0015851
0.00157937
0.00157397
0.00156825
0.00156299
0.00155729
0.00155194
0.00154624
0.00154079
0.00153531
0.00153008
0.0015244
0.00151913
0.00151351
0.00150831
0.00150281
0.0014976
0.00149218
0.00148686
0.00148156
0.00147642
0.00147104
0.001466
0.00146066
0.00145588
0.00145061
0.00144566
0.00144046
0.00143549
0.0014305
0.00142579
0.00142069
0.001416
0.001411
0.00140634
0.00140145
0.0013969
0.00139211
0.00138748
0.00138288
0.00137843
0.00137379
0.00136948
0.00136481
0.00136084
0.0013563
0.00135219
0.00134778
0.00134368
0.00133954
0.00133554
0.00133141
0.00132754
0.00132327
0.00131969
0.00131567
0.00131208
0.00130825
0.00130437
0.0013008
0.0012973
0.00129362
0.00129007
0.00128661
0.00128357
0.00128006
0.00127677
0.0012735
0.00127018
0.00126722
0.0012641
0.00126105
0.0012582
0.00125506
0.00125238
0.00124939
0.00124676
0.00124391
0.00124123
0.00123858
0.00123614
0.0012335
0.00123087
0.0012285
0.00122638
0.00122391
0.00122179
0.00121938
0.00121733
0.0012152
0.00121306
0.00121113
0.00120888
0.00120702
0.00120536
0.00120336
0.00120139
0.00119979
0.00119803
0.00119633
0.00119485
0.0011931
0.00119178
0.00119026
0.00118871
0.00118745
0.0011858
0.00118458
0.00118334
0.00118212
0.00118112
0.00117981
0.00117884
0.00117758
0.0011767
0.00117556
0.00117483
0.00117386
0.00117258
0.00117207
0.00117141
0.00117055
0.00116946
0.001169
0.00116867
0.00116798
0.00116717
0.00116688
0.00116598
0.00116587
0.00116506
0.00116478
0.00116453
0.00116406
0.0011639
0.00116351
0.00116339
0.00116305
0.00116282
0.00116267
0.00116259
0.00116239
0.0011625
0.00116247
0.00116225
0.00116258
0.00116224
0.00116245
0.00116258
0.00116272
0.00116304
0.0011631
0.00116342
0.00116356
0.00116403
0.00116435
0.00116434
0.0011649
0.00116522
0.00116564
0.00116616
0.00116654
0.00116719
0.00116782
0.00116812
0.00116899
0.00116941
0.00117025
0.00117101
0.00117176
0.00117272
0.00117342
0.00117434
0.00117511
0.00117608
0.00117699
0.00117809
0.00117874
0.00117982
0.00118099
0.00118182
0.00118296
0.00118414
0.00118527
0.00118638
0.00118754
0.00118855
0.00118975
0.00119096
0.00119223
0.0011936
0.00119487
0.00119605
0.00119742
0.00119866
0.00120006
0.00120157
0.00120288
0.00120429
0.00120576
0.00120734
0.00120882
0.00121036
0.00121215
0.00121354
0.00121517
0.00121684
0.00121849
0.00122011
0.00122195
0.00122375
0.00122552
0.00122734
0.00122917
0.00123103
0.00123294
0.00123483
0.00123681
0.00123868
0.00124073
0.0012427
0.00124486
0.00124682
0.00124923
0.00125103
0.00125325
0.00125558
0.00125771
0.00125974
0.0012622
0.00126458
0.00126685
0.00126892
0.00127118
0.00127404
0.00127651
0.00127699
0.00127764
0.00128198
0.0012721
0.00126267
0.00125345
0.0012441
0.00123528
0.00122563
0.00121642
0.00120742
0.00119824
0.00118886
0.00117988
0.00117075
0.00116171
0.00115256
0.0011436
0.00113443
0.00112552
0.00111632
0.00110722
0.00109847
0.00108932
0.0010798
0.00107173
0.00106156
0.00105379
0.00104393
0.00103486
0.00102561
0.00101647
0.00100701
0.000997844
0.000988391
0.000979043
0.000969356
0.000959147
0.000950634
0.000939705
0.000931037
0.000920726
0.00091033
0.000899821
0.000890696
0.000880013
0.000869414
0.000858406
0.000848777
0.000837986
0.000827245
0.000816716
0.000805885
0.000794892
0.000784867
0.00077403
0.000762735
0.000752779
0.00074199
0.000731166
0.000721137
0.000710372
0.000700328
0.000690322
0.0006803
0.00067063
0.000661039
0.000651481
0.000642564
0.000633374
0.00062478
0.000616249
0.000607778
0.000599578
0.000591966
0.00058419
0.000576965
0.000569862
0.000562884
0.00055628
0.000549742
0.000543891
0.000537807
0.000532189
0.000526747
0.000521409
0.000516692
0.000511885
0.000507274
0.000503053
0.000499091
0.000495399
0.000491584
0.000488258
0.000485135
0.000482267
0.000479231
0.000476876
0.000474421
0.00047223
0.000470293
0.00046832
0.000466676
0.000465318
0.000463941
0.000462735
0.000461834
0.00046093
0.000460176
0.00045946
0.00045898
0.000458488
0.000457962
0.000457879
0.000457752
0.000457743
0.00045778
0.000457954
0.000458159
0.000458456
0.00045884
0.000459275
0.000459586
0.000460076
0.000460628
0.000461227
0.000461828
0.000462299
0.000462891
0.000463547
0.000464173
0.00046492
0.000465532
0.000466252
0.000466949
0.000467647
0.000468266
0.000468943
0.000469546
0.000470201
0.000470787
0.00047146
0.000471962
0.000472601
0.000473107
0.000473692
0.000474212
0.000474537
0.000474983
0.000475484
0.000475948
0.000476418
0.00047681
0.000477174
0.000477559
0.000477864
0.000478121
0.000478481
0.000478708
0.000478967
0.000479222
0.000479413
0.000479475
0.000479705
0.0004798
0.000480008
0.00048012
0.000479972
0.000480051
0.000480111
0.000480135
0.000480202
0.000480157
0.000480173
0.000480141
0.000480022
0.0004799
0.000479856
0.000479672
0.000479676
0.000479482
0.000479674
0.000479189
0.000479155
0.000479009
0.000478634
0.000478501
0.000477937
0.000477504
0.000477177
0.000476864
0.000476546
0.000476303
0.000475814
0.000475461
0.00047518
0.000474745
0.000474536
0.000473963
0.000473561
0.000473152
0.000472786
0.000472265
0.000471893
0.000471374
0.000471089
0.000470484
0.000469788
0.000469315
0.000468879
0.000468384
0.000468135
0.000467417
0.000466942
0.000466453
0.000466007
0.000465428
0.000465108
0.00046429
0.000463999
0.00046321
0.000462996
0.0004622
0.00046179
0.000461366
0.000460972
0.000460615
0.000459961
0.000459468
0.00045903
0.000458593
0.000458464
0.000457804
0.000457504
0.000456908
0.000456742
0.000456607
0.000456709
0.000456185
0.000456082
0.000455955
0.000456246
0.000455836
0.000455958
0.000456111
0.000456282
0.000456579
0.000456688
0.000457115
0.000457736
0.000458399
0.000459105
0.000460315
0.000460887
0.000462
0.000463664
0.000464636
0.000466261
0.000468228
0.000470213
0.000472403
0.00047484
0.000477418
0.000480407
0.00048351
0.00048695
0.000490605
0.000494354
0.000498993
0.000502563
0.000515783
0.00047744
0.00120055
0.000425634
0.000359994
0.00031951
0.000876501
0.00124629
0.00120681
0.00019325
0.000264314
0.000905976
0.000917687
0.000835808
0.000817475
0.000931869
0.000143947
0.000129328
0.000121981
0.000682798
0.000725736
0.000679413
0.000633426
0.000590052
0.000544875
0.000489165
0.000408842
0.000281548
0.000470354
0.00141343
0.00147594
0.00204465
0.00228362
0.00240257
0.00252848
0.0026489
0.00273652
0.0028213
0.00290344
0.00298257
0.00305842
0.0031308
0.00319963
0.00326486
0.00332655
0.00338481
0.00343988
0.00349209
0.00354155
0.00358836
0.00363268
0.00367522
0.00371542
0.00375376
0.00379055
0.00382587
0.00385982
0.00389257
0.00392419
0.00395477
0.00398441
0.00401316
0.00404109
0.00406824
0.00409475
0.00412062
0.00414592
0.00417066
0.00419487
0.00421863
0.00424192
0.00426481
0.00428716
0.00430914
0.00433074
0.00435186
0.00437254
0.00439337
0.00441333
0.0044329
0.00445228
0.00447166
0.00449018
0.00450878
0.0045268
0.00454445
0.00456181
0.00457885
0.00459599
0.00461245
0.00462853
0.00464447
0.00466002
0.00467528
0.00469015
0.00470515
0.00471934
0.00473327
0.00474698
0.00476038
0.00477343
0.00478624
0.00479868
0.00481089
0.00482275
0.00483441
0.00484562
0.00485655
0.00486714
0.00487746
0.00488744
0.0048972
0.00490662
0.00491578
0.00492456
0.00493309
0.00494128
0.00494924
0.00495687
0.00496426
0.00497133
0.00497813
0.0049846
0.00499085
0.00499674
0.00500242
0.00500794
0.00501297
0.00501794
0.0050225
0.00502679
0.0050309
0.0050347
0.00503829
0.00504159
0.00504472
0.00504755
0.00505016
0.00505252
0.00505465
0.00505651
0.00505817
0.0050597
0.00506089
0.00506196
0.00506267
0.00506329
0.00506364
0.00506381
0.00506379
0.00506355
0.00506322
0.00506258
0.00506178
0.00506083
0.00505962
0.00505829
0.0050568
0.00505509
0.00505327
0.00505128
0.0050491
0.00504672
0.00504426
0.00504162
0.00503889
0.00503623
0.00503343
0.00502988
0.00502647
0.00502275
0.00501907
0.00501532
0.00501136
0.00500733
0.00500317
0.00499892
0.00499452
0.00498991
0.00498529
0.00498043
0.00497557
0.0049705
0.0049654
0.00496006
0.0049547
0.00494918
0.00494356
0.00493783
0.00493201
0.00492603
0.00492006
0.00491381
0.00490763
0.00490121
0.00489479
0.0048882
0.00488155
0.00487476
0.00486792
0.00486091
0.00485384
0.00484663
0.00483939
0.00483194
0.00482453
0.0048169
0.00480925
0.00480145
0.00479357
0.00478555
0.0047775
0.00476931
0.00476106
0.00475268
0.00474425
0.00473564
0.00472705
0.00471823
0.00470941
0.00470044
0.00469144
0.0046823
0.00467311
0.00466376
0.00465437
0.00464483
0.00463525
0.00462552
0.00461575
0.00460594
0.00459596
0.00458588
0.00457575
0.00456548
0.00455516
0.00454471
0.00453421
0.00452359
0.004513
0.00450216
0.0044913
0.00448032
0.00446929
0.00445812
0.00444693
0.00443568
0.00442427
0.00441283
0.00440124
0.00438965
0.00437791
0.00436608
0.00435425
0.00434229
0.00433029
0.00431817
0.00430601
0.00429373
0.00428141
0.00426909
0.00425664
0.00424408
0.00423151
0.0042189
0.00420615
0.00419343
0.00418061
0.0041677
0.00415482
0.00414182
0.00412881
0.0041157
0.00410266
0.00408945
0.00407626
0.004063
0.00404935
0.00403611
0.00402251
0.0040096
0.00399557
0.00398286
0.00396856
0.00395519
0.00394166
0.00392845
0.00391436
0.0039013
0.00388733
0.00387417
0.00385981
0.00384738
0.00383316
0.0038201
0.00380636
0.00379326
0.00377853
0.00376558
0.00375184
0.00373876
0.00372488
0.00371216
0.00369805
0.00368485
0.00367152
0.0036586
0.00364484
0.00363213
0.00361868
0.00360601
0.00359229
0.00358042
0.00356689
0.00355454
0.0035416
0.00352933
0.00351548
0.00350358
0.00349089
0.00347876
0.00346606
0.00345446
0.00344161
0.00342971
0.00341776
0.00340628
0.00339403
0.0033827
0.0033708
0.00335976
0.00334767
0.00333746
0.00332575
0.00331516
0.0033041
0.00329369
0.00328167
0.00327174
0.00326099
0.00325098
0.00324037
0.00323096
0.0032204
0.00321043
0.00320091
0.00319163
0.00318139
0.00317275
0.0031632
0.00315464
0.00314514
0.00313697
0.00312796
0.00311992
0.00311138
0.00310315
0.00309417
0.00308683
0.00307875
0.00307111
0.00306338
0.00305623
0.00304865
0.00304126
0.00303446
0.003028
0.00302069
0.0030146
0.00300777
0.00300184
0.00299499
0.00298985
0.00298345
0.00297817
0.00297245
0.00296671
0.00296063
0.00295583
0.00295046
0.00294587
0.00294055
0.00293656
0.00293143
0.00292657
0.00292269
0.00291804
0.00291379
0.00291049
0.00290623
0.00290222
0.00289835
0.00289574
0.0028917
0.00288888
0.00288547
0.00288288
0.00287913
0.002876
0.0028735
0.00287033
0.00286769
0.00286588
0.00286286
0.00286076
0.00285851
0.00285673
0.00285422
0.00285264
0.00285044
0.00284917
0.00284701
0.00284545
0.00284398
0.00284316
0.00284166
0.00283977
0.00283809
0.00283769
0.0028365
0.00283512
0.00283447
0.00283348
0.00283263
0.00283111
0.00283063
0.00283042
0.00282933
0.00282922
0.00282842
0.00282827
0.00282724
0.00282765
0.00282684
0.00282678
0.00282639
0.0028266
0.00282588
0.00282542
0.00282585
0.00282528
0.00282515
0.00282585
0.00282527
0.00282547
0.00282554
0.00282587
0.00282572
0.00282634
0.0028266
0.00282622
0.00282629
0.00282745
0.00282717
0.00282779
0.002828
0.00282871
0.00282874
0.00282885
0.00282972
0.00283009
0.00283067
0.00283211
0.0028322
0.00283303
0.00283386
0.00283478
0.0028353
0.00283623
0.00283699
0.00283823
0.0028381
0.0028398
0.00284064
0.00284115
0.0028421
0.00284334
0.00284369
0.00284482
0.0028458
0.00284647
0.00284724
0.0028487
0.00284918
0.00285007
0.00285132
0.00285208
0.00285303
0.00285392
0.0028549
0.00285623
0.00285671
0.00285845
0.00285912
0.00286033
0.00286146
0.00286261
0.00286373
0.00286485
0.00286606
0.00286738
0.00286855
0.0028701
0.00287112
0.00287224
0.00287394
0.00287531
0.00287671
0.00287814
0.00287967
0.00288111
0.00288237
0.00288441
0.00288571
0.00288717
0.00288897
0.00289046
0.00289232
0.00289384
0.0028958
0.00289777
0.00289959
0.00290158
0.00290352
0.00290531
0.00290769
0.00290918
0.00291127
0.00291383
0.00291557
0.00291409
0.00291292
0.00291647
0.00289787
0.00287932
0.00286131
0.0028428
0.00282498
0.00280633
0.00278834
0.0027702
0.00275211
0.00273394
0.0027158
0.00269726
0.00267973
0.00266139
0.00264357
0.00262517
0.0026074
0.00258885
0.00257072
0.00255341
0.00253438
0.00251555
0.00249882
0.00247829
0.0024619
0.00244194
0.00242352
0.00240448
0.00238562
0.00236627
0.00234685
0.00232666
0.00230734
0.00228671
0.00226561
0.00224697
0.00222391
0.00220483
0.00218215
0.00216013
0.00213751
0.00211689
0.00209328
0.00206943
0.00204557
0.0020237
0.00199937
0.0019749
0.0019509
0.00192622
0.00190099
0.00187721
0.00185208
0.00182603
0.00180235
0.00177663
0.00175128
0.00172694
0.00170127
0.00167739
0.00165286
0.00162833
0.00160469
0.00158081
0.0015575
0.00153522
0.00151243
0.00149053
0.00146886
0.00144747
0.00142656
0.0014065
0.00138682
0.00136785
0.00134925
0.00133096
0.0013135
0.0012963
0.00128018
0.00126425
0.00124893
0.00123401
0.00121978
0.00120637
0.00119327
0.00118073
0.00116866
0.00115753
0.00114676
0.00113586
0.00112595
0.00111684
0.00110834
0.00109935
0.00109209
0.00108451
0.00107779
0.00107159
0.00106525
0.00106015
0.0010553
0.00105057
0.00104651
0.00104274
0.00103976
0.00103689
0.00103399
0.00103147
0.001029
0.00102682
0.00102538
0.00102391
0.00102304
0.00102218
0.0010217
0.00102131
0.00102123
0.0010213
0.00102139
0.00102164
0.00102206
0.00102258
0.00102341
0.00102401
0.00102487
0.00102589
0.0010268
0.00102765
0.00102872
0.0010297
0.00103075
0.0010317
0.00103297
0.00103395
0.00103507
0.001036
0.00103713
0.00103805
0.00103905
0.00104005
0.00104105
0.00104179
0.00104282
0.00104343
0.00104419
0.00104506
0.00104581
0.00104639
0.00104701
0.00104758
0.00104795
0.00104829
0.00104875
0.001049
0.00104946
0.00104963
0.0010499
0.00105012
0.00105005
0.00105013
0.00105024
0.00105008
0.0010503
0.00105003
0.00104987
0.00104995
0.00104965
0.00104925
0.00104899
0.00104862
0.00104825
0.0010476
0.00104722
0.00104666
0.0010467
0.00104581
0.00104564
0.00104525
0.00104501
0.00104386
0.00104343
0.00104249
0.00104144
0.00104065
0.00103942
0.00103838
0.00103725
0.00103608
0.00103498
0.00103416
0.00103285
0.00103162
0.00103081
0.00102965
0.00102889
0.00102755
0.00102646
0.00102535
0.00102419
0.00102313
0.0010221
0.00102081
0.00102003
0.00101856
0.00101723
0.00101626
0.00101512
0.00101388
0.00101305
0.00101169
0.0010105
0.00100928
0.0010084
0.00100722
0.00100647
0.00100499
0.00100428
0.0010029
0.00100221
0.00100107
0.00100028
0.000999512
0.000998961
0.000998329
0.000997526
0.000996972
0.000996316
0.00099571
0.000995656
0.000995013
0.00099474
0.000994025
0.000994214
0.000994522
0.000995302
0.000995229
0.000995711
0.000996317
0.000997525
0.000998148
0.000999276
0.00100065
0.00100222
0.00100397
0.00100565
0.0010079
0.0010105
0.0010133
0.00101632
0.0010205
0.00102357
0.00102752
0.00103282
0.00103706
0.00104241
0.00104859
0.00105501
0.00106189
0.00106919
0.00107735
0.00108599
0.00109505
0.00110487
0.00111512
0.00112563
0.00113766
0.0011482
0.00117563
0.00111396
0.00182201
0.0010084
0.000852485
0.000761381
0.00146522
0.00187451
0.00175216
0.000526981
0.000822365
0.00147345
0.00153546
0.00144235
0.00141424
0.00144583
0.000457579
0.000404774
0.000392938
0.00125195
0.00130396
0.00124381
0.00118238
0.00112262
0.00105818
0.000973011
0.000838955
0.000589998
0.00104063
0.00232646
0.00259495
0.0033582
0.00365973
0.00384789
0.00403718
0.00421651
0.0043556
0.00449159
0.00462436
0.00475331
0.00487785
0.0049975
0.00511206
0.00522135
0.00532538
0.00542409
0.00551796
0.00560745
0.00569269
0.00577376
0.00585088
0.005925
0.00599561
0.00606306
0.00612818
0.00619066
0.00625107
0.0063093
0.00636586
0.00642049
0.00647373
0.00652529
0.00657566
0.00662453
0.00667246
0.0067191
0.00676494
0.00680961
0.00685357
0.00689648
0.0069388
0.00698019
0.00702088
0.00706066
0.0071
0.00713827
0.00717605
0.00721359
0.00725011
0.00728563
0.00732105
0.00735602
0.00739
0.00742358
0.00745663
0.00748869
0.00752051
0.00755149
0.00758272
0.00761264
0.00764216
0.00767112
0.00769967
0.00772742
0.00775481
0.00778193
0.00780813
0.00783356
0.00785886
0.00788332
0.00790746
0.00793085
0.0079539
0.00797623
0.00799826
0.00801964
0.00804052
0.00806064
0.00808047
0.00809953
0.0081183
0.00813635
0.0081541
0.0081711
0.00818776
0.00820369
0.00821933
0.00823426
0.00824892
0.00826287
0.00827655
0.00828947
0.00830211
0.00831407
0.00832573
0.00833673
0.00834768
0.0083576
0.00836759
0.00837667
0.00838554
0.00839382
0.00840186
0.00840924
0.00841643
0.008423
0.00842937
0.00843507
0.00844061
0.00844547
0.00845017
0.00845425
0.00845834
0.00846162
0.00846491
0.00846739
0.00846992
0.00847175
0.00847351
0.0084747
0.0084758
0.0084764
0.00847683
0.00847668
0.00847654
0.00847569
0.00847489
0.00847354
0.00847212
0.0084702
0.00846828
0.00846575
0.00846317
0.00846015
0.00845715
0.00845368
0.00845057
0.00844704
0.00844247
0.00843775
0.00843306
0.00842795
0.00842305
0.00841751
0.00841214
0.00840624
0.00840046
0.00839416
0.00838785
0.0083811
0.00837437
0.00836724
0.00836013
0.00835263
0.00834506
0.00833711
0.00832921
0.00832085
0.00831258
0.00830385
0.00829521
0.00828623
0.00827714
0.00826779
0.00825841
0.00824868
0.00823897
0.00822888
0.00821885
0.0082084
0.008198
0.00818718
0.00817645
0.00816534
0.00815423
0.00814282
0.0081314
0.0081196
0.00810787
0.0080957
0.00808362
0.00807116
0.00805876
0.00804597
0.00803328
0.00802017
0.0080071
0.00799373
0.0079803
0.00796653
0.00795285
0.00793878
0.00792481
0.00791042