/*--------------------------------*- C++ -*----------------------------------*\
  =========                 |
  \\      /  F ield         | OpenFOAM: The Open Source CFD Toolbox
   \\    /   O peration     | Website:  https://openfoam.org
    \\  /    A nd           | Version:  9
     \\/     M anipulation  |
\*---------------------------------------------------------------------------*/
FoamFile
{
    format      ascii;
    class       volScalarField;
    location    "1282";
    object      p;
}
// * * * * * * * * * * * * * * * * * * * * * * * * * * * * * * * * * * * * * //

dimensions      [0 2 -2 0 0 0 0];

internalField   nonuniform List<scalar> 
204073
(
644.429
644.414
644.376
644.298
644.207
644.112
644.016
643.915
643.807
643.69
643.559
643.414
643.255
643.079
642.886
642.677
642.451
642.209
641.951
641.678
641.389
641.087
640.772
640.441
640.101
639.749
639.386
639.013
638.63
638.239
637.84
637.433
637.021
636.601
636.177
635.748
635.315
634.878
634.438
633.996
633.551
633.104
632.657
632.208
631.76
631.311
630.863
630.415
629.972
629.525
629.084
628.643
628.207
627.769
627.34
626.909
626.485
626.063
625.645
625.234
624.823
624.418
624.018
623.623
623.232
622.846
622.467
622.09
621.721
621.356
620.996
620.642
620.293
619.95
619.613
619.281
618.955
618.635
618.32
618.012
617.709
617.411
617.12
616.834
616.554
616.28
616.011
615.748
615.49
615.238
614.991
614.75
614.515
614.284
614.059
613.839
613.624
613.416
613.21
613.012
612.817
612.627
612.442
612.262
612.087
611.916
611.75
611.588
611.432
611.279
611.131
610.986
610.846
610.711
610.578
610.451
610.327
610.208
610.091
609.978
609.869
609.763
609.661
609.563
609.468
609.377
609.288
609.203
609.12
609.041
608.965
608.892
608.822
608.755
608.691
608.629
608.57
608.514
608.46
608.41
608.362
608.317
608.274
608.233
608.195
608.159
608.125
608.094
608.065
608.038
608.013
607.991
607.97
607.952
607.936
607.922
607.91
607.899
607.891
607.885
607.88
607.877
607.876
607.877
607.88
607.884
607.89
607.898
607.908
607.919
607.932
607.948
607.964
607.982
608.002
608.023
608.047
608.071
608.098
608.126
608.155
608.186
608.218
608.252
608.288
608.325
608.363
608.403
608.445
608.488
608.533
608.579
608.627
608.676
608.727
608.779
608.833
608.888
608.944
609.003
609.062
609.124
609.186
609.25
609.316
609.383
609.452
609.522
609.594
609.667
609.742
609.818
609.896
609.976
610.056
610.139
610.223
610.309
610.395
610.485
610.574
610.667
610.76
610.855
610.951
611.05
611.15
611.251
611.355
611.46
611.566
611.675
611.784
611.896
612.01
612.126
612.242
612.362
612.482
612.604
612.728
612.854
612.982
613.112
613.244
613.377
613.512
613.649
613.788
613.928
614.071
614.217
614.364
614.513
614.664
614.816
614.971
615.128
615.288
615.449
615.612
615.778
615.946
616.116
616.287
616.462
616.639
616.818
616.999
617.181
617.366
617.554
617.745
617.938
618.134
618.331
618.531
618.734
618.939
619.146
619.356
619.568
619.784
620.001
620.222
620.444
620.67
620.899
621.129
621.361
621.598
621.836
622.079
622.324
622.571
622.821
623.075
623.33
623.59
623.851
624.117
624.385
624.656
624.929
625.206
625.485
625.769
626.056
626.343
626.636
626.93
627.229
627.53
627.835
628.144
628.452
628.769
629.087
629.405
629.732
630.059
630.388
630.724
631.057
631.401
631.744
632.093
632.44
632.797
633.152
633.514
633.874
634.247
634.611
634.992
635.363
635.748
636.13
636.517
636.907
637.3
637.697
638.097
638.499
638.907
639.315
639.73
640.141
640.566
640.985
641.41
641.838
642.269
642.703
643.142
643.575
644.027
644.464
644.918
645.368
645.824
646.273
646.739
647.199
647.662
648.128
648.598
649.067
649.543
650.009
650.496
650.967
651.456
651.938
652.423
652.909
653.398
653.888
654.38
654.873
655.366
655.862
656.361
656.851
657.358
657.855
658.359
658.853
659.362
659.861
660.366
660.861
661.375
661.868
662.382
662.876
663.386
663.888
664.391
664.892
665.394
665.894
666.395
666.894
667.392
667.889
668.386
668.88
669.376
669.86
670.36
670.839
671.333
671.816
672.3
672.78
673.259
673.735
674.209
674.681
675.151
675.612
676.082
676.541
676.999
677.454
677.907
678.355
678.803
679.24
679.686
680.116
680.554
680.981
681.407
681.829
682.247
682.661
683.072
683.479
683.882
684.282
684.674
685.069
685.456
685.837
686.22
686.594
686.965
687.332
687.695
688.051
688.408
688.757
689.104
689.445
689.783
690.115
690.446
690.769
691.091
691.407
691.717
692.027
692.328
692.629
692.922
693.214
693.5
693.782
694.06
694.333
694.603
694.869
695.13
695.387
695.64
695.889
696.134
696.375
696.611
696.844
697.072
697.297
697.517
697.734
697.946
698.154
698.36
698.561
698.758
698.951
699.14
699.325
699.507
699.685
699.858
700.029
700.194
700.357
700.516
700.672
700.823
700.971
701.113
701.253
701.389
701.522
701.651
701.776
701.898
702.018
702.131
702.244
702.352
702.458
702.559
702.657
702.751
702.842
702.929
703.014
703.093
703.171
703.239
703.31
703.376
703.432
703.494
703.541
703.595
703.638
703.678
703.714
703.745
703.773
703.796
703.816
703.83
703.842
703.842
703.85
703.839
703.838
703.825
703.811
703.786
703.768
703.739
703.711
703.671
703.64
703.598
703.556
703.512
703.467
703.413
703.367
703.315
703.259
703.209
703.155
703.097
703.047
702.988
702.935
702.88
702.826
702.773
702.722
702.669
702.62
702.568
702.521
702.473
702.428
702.381
702.338
702.294
702.253
702.212
702.172
702.133
702.094
702.059
702.023
701.989
701.956
701.921
701.891
701.859
701.828
701.799
701.77
701.741
701.713
701.686
701.659
701.633
701.606
701.582
701.558
701.533
701.51
701.486
701.464
701.44
701.418
701.396
701.376
701.355
701.335
701.314
701.295
701.275
701.255
701.237
701.219
701.201
701.183
701.166
701.149
701.132
701.117
701.101
701.086
701.071
701.057
701.042
701.029
701.015
701.003
700.99
700.978
700.967
700.956
700.945
700.935
700.925
700.916
700.907
700.899
700.892
700.885
700.879
700.873
700.868
700.863
700.86
700.857
700.855
700.853
700.852
700.852
700.852
700.854
700.855
700.859
700.862
700.868
700.874
700.88
700.887
700.897
700.905
700.916
700.928
700.941
700.956
700.97
700.986
701.005
701.022
701.042
701.063
701.086
701.11
701.135
701.162
701.191
701.22
701.253
701.285
701.32
701.357
701.394
701.434
701.476
701.519
701.566
701.612
701.662
701.713
701.767
701.822
701.881
701.94
702.002
702.067
702.134
702.205
702.276
702.351
702.428
702.508
702.59
702.676
702.764
702.856
702.949
703.047
703.147
703.25
703.357
703.468
703.58
703.697
703.817
703.941
704.068
704.2
704.333
704.472
704.612
704.76
704.908
705.061
705.218
705.379
705.545
705.715
705.888
706.065
706.246
706.434
706.622
706.817
707.013
707.215
707.42
707.631
707.844
708.061
708.282
708.509
708.736
708.969
709.204
709.443
709.686
709.931
710.179
710.43
710.683
710.938
711.198
711.455
711.716
711.98
712.241
712.506
712.77
713.033
713.296
713.558
713.818
714.076
714.332
714.584
714.833
715.076
715.314
715.546
715.773
715.989
716.206
716.424
716.633
716.81
716.975
717.134
717.299
717.441
717.557
717.669
717.773
717.857
717.929
717.995
718.06
718.112
718.153
718.187
718.217
718.244
718.272
718.298
718.325
718.338
718.343
644.429
644.41
644.37
644.292
644.203
644.109
644.014
643.913
643.805
643.688
643.556
643.411
643.251
643.074
642.881
642.671
642.445
642.202
641.943
641.669
641.38
641.077
640.761
640.43
640.089
639.736
639.373
638.999
638.616
638.224
637.825
637.418
637.005
636.585
636.161
635.731
635.298
634.861
634.421
633.978
633.533
633.087
632.639
632.19
631.742
631.293
630.845
630.397
629.954
629.507
629.066
628.625
628.19
627.752
627.323
626.892
626.468
626.047
625.629
625.218
624.807
624.403
624.002
623.607
623.217
622.831
622.453
622.076
621.706
621.341
620.982
620.628
620.28
619.937
619.6
619.269
618.943
618.623
618.309
618
617.697
617.401
617.109
616.824
616.544
616.27
616.002
615.738
615.481
615.229
614.983
614.742
614.507
614.277
614.052
613.832
613.617
613.409
613.203
613.005
612.81
612.621
612.436
612.256
612.081
611.911
611.745
611.583
611.427
611.275
611.126
610.982
610.842
610.707
610.575
610.448
610.323
610.205
610.088
609.975
609.866
609.761
609.659
609.561
609.465
609.375
609.286
609.201
609.119
609.04
608.964
608.891
608.821
608.754
608.69
608.629
608.57
608.514
608.46
608.41
608.361
608.317
608.273
608.233
608.194
608.159
608.125
608.094
608.065
608.038
608.014
607.991
607.971
607.952
607.937
607.923
607.911
607.9
607.892
607.886
607.881
607.878
607.878
607.879
607.881
607.886
607.892
607.9
607.909
607.921
607.934
607.949
607.966
607.984
608.004
608.025
608.049
608.073
608.1
608.128
608.157
608.188
608.22
608.254
608.29
608.327
608.365
608.406
608.448
608.491
608.535
608.581
608.629
608.678
608.729
608.782
608.835
608.89
608.947
609.005
609.065
609.126
609.188
609.253
609.319
609.386
609.455
609.525
609.597
609.67
609.745
609.821
609.899
609.979
610.059
610.142
610.226
610.312
610.398
610.488
610.577
610.67
610.763
610.858
610.955
611.053
611.153
611.255
611.358
611.463
611.57
611.678
611.788
611.9
612.013
612.129
612.246
612.365
612.485
612.607
612.731
612.857
612.985
613.115
613.247
613.38
613.516
613.653
613.792
613.932
614.075
614.22
614.367
614.516
614.667
614.82
614.975
615.132
615.291
615.453
615.616
615.782
615.95
616.119
616.291
616.465
616.642
616.822
617.003
617.184
617.37
617.558
617.749
617.942
618.137
618.335
618.535
618.737
618.943
619.149
619.36
619.572
619.788
620.005
620.225
620.448
620.674
620.902
621.132
621.365
621.602
621.84
622.083
622.328
622.575
622.825
623.079
623.334
623.594
623.854
624.121
624.389
624.66
624.933
625.21
625.489
625.773
626.06
626.347
626.639
626.933
627.233
627.534
627.839
628.147
628.456
628.773
629.09
629.408
629.735
630.062
630.392
630.727
631.061
631.404
631.747
632.096
632.443
632.8
633.155
633.517
633.877
634.25
634.615
634.994
635.365
635.75
636.132
636.52
636.909
637.303
637.699
638.099
638.502
638.909
639.318
639.733
640.143
640.568
640.987
641.412
641.84
642.271
642.705
643.144
643.577
644.029
644.465
644.92
645.37
645.825
646.275
646.741
647.2
647.663
648.129
648.599
649.068
649.544
650.01
650.496
650.968
651.456
651.938
652.424
652.909
653.398
653.887
654.379
654.872
655.366
655.861
656.361
656.851
657.358
657.854
658.358
658.852
659.36
659.86
660.365
660.86
661.373
661.867
662.38
662.874
663.384
663.886
664.389
664.89
665.392
665.892
666.393
666.892
667.389
667.886
668.383
668.877
669.373
669.857
670.356
670.836
671.329
671.813
672.296
672.776
673.255
673.731
674.205
674.677
675.147
675.608
676.078
676.537
676.995
677.45
677.903
678.351
678.798
679.235
679.681
680.111
680.549
680.977
681.402
681.823
682.242
682.656
683.067
683.474
683.877
684.277
684.669
685.064
685.451
685.831
686.214
686.588
686.959
687.326
687.689
688.045
688.402
688.752
689.098
689.439
689.777
690.109
690.44
690.763
691.085
691.401
691.712
692.021
692.323
692.623
692.917
693.208
693.495
693.776
694.054
694.328
694.598
694.863
695.124
695.381
695.635
695.883
696.128
696.369
696.606
696.838
697.067
697.292
697.512
697.728
697.941
698.149
698.354
698.555
698.752
698.946
699.135
699.32
699.501
699.679
699.853
700.024
700.189
700.352
700.511
700.667
700.818
700.966
701.108
701.249
701.385
701.517
701.646
701.772
701.894
702.014
702.126
702.24
702.348
702.453
702.555
702.653
702.747
702.838
702.925
703.01
703.089
703.167
703.236
703.307
703.372
703.429
703.491
703.538
703.591
703.635
703.675
703.711
703.743
703.771
703.794
703.814
703.827
703.84
703.84
703.848
703.837
703.837
703.823
703.81
703.785
703.767
703.738
703.71
703.67
703.639
703.597
703.556
703.511
703.467
703.413
703.367
703.315
703.259
703.209
703.156
703.098
703.047
702.988
702.936
702.88
702.827
702.774
702.723
702.669
702.621
702.569
702.522
702.474
702.429
702.382
702.339
702.295
702.254
702.212
702.172
702.134
702.095
702.059
702.024
701.99
701.956
701.922
701.891
701.859
701.829
701.799
701.77
701.742
701.714
701.687
701.66
701.634
701.607
701.583
701.558
701.534
701.511
701.486
701.464
701.441
701.419
701.396
701.376
701.355
701.335
701.314
701.295
701.275
701.255
701.237
701.219
701.201
701.184
701.167
701.15
701.133
701.117
701.101
701.086
701.071
701.057
701.043
701.029
701.016
701.003
700.99
700.979
700.967
700.956
700.945
700.935
700.925
700.916
700.907
700.899
700.892
700.885
700.879
700.873
700.868
700.863
700.86
700.857
700.855
700.853
700.852
700.852
700.852
700.854
700.855
700.859
700.862
700.867
700.874
700.88
700.887
700.896
700.905
700.916
700.927
700.94
700.955
700.969
700.985
701.004
701.021
701.041
701.062
701.085
701.109
701.134
701.16
701.19
701.218
701.251
701.283
701.318
701.355
701.392
701.432
701.474
701.517
701.564
701.61
701.659
701.711
701.764
701.819
701.878
701.937
701.999
702.064
702.13
702.201
702.272
702.347
702.424
702.504
702.586
702.672
702.759
702.852
702.945
703.042
703.142
703.245
703.351
703.463
703.574
703.691
703.811
703.935
704.061
704.193
704.326
704.465
704.605
704.752
704.9
705.053
705.21
705.371
705.537
705.706
705.879
706.056
706.237
706.424
706.612
706.807
707.002
707.204
707.409
707.62
707.832
708.05
708.27
708.497
708.724
708.956
709.192
709.431
709.673
709.918
710.166
710.416
710.669
710.925
711.184
711.441
711.702
711.966
712.227
712.492
712.756
713.019
713.282
713.544
713.804
714.063
714.319
714.572
714.82
715.064
715.302
715.534
715.763
715.98
716.198
716.415
716.624
716.801
716.968
717.128
717.293
717.435
717.552
717.665
717.769
717.854
717.927
717.994
718.059
718.111
718.152
718.187
718.217
718.244
718.271
718.297
718.323
718.336
718.343
644.429
644.405
644.364
644.287
644.2
644.108
644.014
643.914
643.807
643.689
643.557
643.412
643.251
643.074
642.881
642.67
642.443
642.2
641.94
641.665
641.375
641.071
640.755
640.423
640.082
639.728
639.364
638.99
638.607
638.215
637.815
637.407
636.994
636.574
636.149
635.719
635.286
634.849
634.408
633.965
633.52
633.074
632.626
632.177
631.729
631.28
630.832
630.384
629.941
629.494
629.053
628.612
628.177
627.739
627.31
626.879
626.455
626.034
625.617
625.205
624.794
624.391
623.991
623.596
623.206
622.82
622.442
622.065
621.696
621.331
620.972
620.618
620.27
619.928
619.591
619.26
618.934
618.615
618.3
617.992
617.69
617.393
617.102
616.817
616.537
616.263
615.995
615.732
615.475
615.223
614.977
614.736
614.501
614.271
614.047
613.827
613.612
613.404
613.199
613.001
612.806
612.617
612.433
612.253
612.078
611.907
611.742
611.581
611.424
611.272
611.124
610.98
610.84
610.705
610.573
610.446
610.322
610.203
610.087
609.974
609.865
609.76
609.658
609.56
609.465
609.374
609.286
609.201
609.119
609.04
608.964
608.891
608.821
608.755
608.691
608.629
608.57
608.514
608.461
608.411
608.362
608.318
608.274
608.234
608.196
608.16
608.127
608.095
608.066
608.04
608.015
607.993
607.973
607.954
607.938
607.924
607.912
607.902
607.894
607.888
607.883
607.88
607.88
607.881
607.884
607.888
607.894
607.902
607.912
607.923
607.936
607.952
607.968
607.986
608.007
608.028
608.051
608.076
608.102
608.13
608.16
608.191
608.223
608.257
608.293
608.33
608.368
608.408
608.451
608.493
608.538
608.584
608.632
608.681
608.732
608.785
608.838
608.894
608.95
609.008
609.068
609.129
609.192
609.256
609.322
609.389
609.458
609.528
609.6
609.673
609.748
609.825
609.903
609.982
610.063
610.145
610.229
610.315
610.402
610.491
610.581
610.673
610.766
610.861
610.958
611.056
611.156
611.258
611.361
611.466
611.573
611.682
611.791
611.903
612.017
612.133
612.249
612.369
612.488
612.611
612.735
612.861
612.989
613.119
613.251
613.384
613.519
613.656
613.795
613.935
614.078
614.224
614.371
614.52
614.671
614.823
614.978
615.135
615.295
615.456
615.62
615.785
615.953
616.123
616.294
616.469
616.646
616.825
617.006
617.188
617.373
617.562
617.752
617.945
618.141
618.338
618.538
618.741
618.946
619.153
619.364
619.575
619.791
620.008
620.228
620.451
620.677
620.906
621.135
621.368
621.605
621.843
622.086
622.331
622.578
622.828
623.082
623.337
623.597
623.857
624.124
624.391
624.663
624.936
625.212
625.492
625.775
626.062
626.349
626.642
626.936
627.235
627.537
627.841
628.15
628.458
628.775
629.093
629.41
629.737
630.064
630.394
630.729
631.063
631.406
631.749
632.098
632.445
632.802
633.157
633.518
633.878
634.251
634.616
634.996
635.367
635.752
636.134
636.521
636.91
637.304
637.701
638.101
638.503
638.91
639.318
639.733
640.144
640.568
640.987
641.413
641.841
642.271
642.705
643.144
643.577
644.029
644.465
644.92
645.369
645.825
646.275
646.74
647.199
647.662
648.128
648.598
649.067
649.543
650.008
650.495
650.966
651.455
651.937
652.422
652.907
653.396
653.885
654.377
654.87
655.363
655.859
656.359
656.848
657.355
657.851
658.355
658.849
659.357
659.856
660.361
660.856
661.37
661.863
662.377
662.87
663.38
663.881
664.385
664.885
665.387
665.887
666.389
666.887
667.384
667.881
668.378
668.872
669.368
669.851
670.351
670.83
671.324
671.807
672.29
672.77
673.249
673.725
674.199
674.67
675.141
675.602
676.072
676.53
676.988
677.443
677.896
678.344
678.791
679.228
679.674
680.104
680.542
680.969
681.395
681.816
682.234
682.648
683.059
683.466
683.869
684.269
684.661
685.056
685.442
685.823
686.206
686.58
686.951
687.318
687.68
688.037
688.394
688.744
689.09
689.431
689.769
690.1
690.432
690.754
691.077
691.393
691.703
692.012
692.314
692.615
692.908
693.2
693.486
693.767
694.046
694.319
694.589
694.855
695.116
695.373
695.626
695.875
696.12
696.36
696.597
696.83
697.058
697.283
697.503
697.72
697.932
698.141
698.346
698.547
698.744
698.938
699.126
699.312
699.493
699.671
699.845
700.016
700.18
700.344
700.503
700.659
700.81
700.959
701.1
701.241
701.377
701.51
701.639
701.765
701.886
702.006
702.119
702.233
702.341
702.447
702.548
702.646
702.741
702.832
702.919
703.003
703.083
703.161
703.23
703.301
703.367
703.423
703.486
703.533
703.586
703.63
703.67
703.706
703.738
703.766
703.789
703.809
703.823
703.836
703.836
703.845
703.834
703.833
703.82
703.807
703.782
703.764
703.736
703.708
703.668
703.637
703.595
703.554
703.51
703.465
703.412
703.365
703.314
703.258
703.208
703.155
703.097
703.046
702.988
702.935
702.88
702.827
702.774
702.723
702.669
702.621
702.569
702.522
702.474
702.429
702.382
702.339
702.295
702.254
702.213
702.173
702.134
702.095
702.06
702.024
701.99
701.957
701.922
701.892
701.86
701.829
701.8
701.771
701.742
701.714
701.687
701.66
701.634
701.607
701.583
701.558
701.534
701.511
701.487
701.465
701.441
701.419
701.396
701.376
701.356
701.335
701.314
701.295
701.275
701.256
701.238
701.219
701.202
701.184
701.167
701.15
701.133
701.117
701.101
701.086
701.071
701.057
701.043
701.029
701.016
701.003
700.99
700.979
700.967
700.956
700.945
700.935
700.925
700.916
700.907
700.899
700.892
700.885
700.879
700.873
700.868
700.863
700.86
700.856
700.854
700.853
700.852
700.851
700.851
700.853
700.855
700.859
700.862
700.867
700.873
700.879
700.886
700.896
700.904
700.915
700.927
700.94
700.954
700.969
700.985
701.003
701.02
701.04
701.061
701.084
701.108
701.133
701.159
701.189
701.217
701.25
701.282
701.317
701.354
701.391
701.43
701.472
701.515
701.562
701.608
701.657
701.709
701.762
701.817
701.876
701.934
701.997
702.061
702.128
702.198
702.269
702.344
702.421
702.5
702.583
702.668
702.756
702.848
702.941
703.038
703.138
703.241
703.347
703.458
703.57
703.686
703.806
703.929
704.056
704.188
704.32
704.46
704.599
704.746
704.893
705.047
705.203
705.364
705.529
705.698
705.871
706.048
706.229
706.416
706.604
706.798
706.993
707.195
707.4
707.611
707.823
708.04
708.26
708.487
708.713
708.946
709.181
709.42
709.662
709.906
710.154
710.405
710.658
710.913
711.172
711.429
711.69
711.954
712.215
712.479
712.743
713.007
713.27
713.532
713.792
714.051
714.307
714.56
714.809
715.053
715.291
715.523
715.753
715.972
716.191
716.407
716.614
716.793
716.96
717.123
717.288
717.428
717.547
717.661
717.766
717.851
717.925
717.993
718.058
718.11
718.152
718.187
718.216
718.243
718.27
718.295
718.321
718.334
718.343
644.428
644.4
644.359
644.283
644.199
644.108
644.016
643.917
643.81
643.693
643.561
643.416
643.255
643.078
642.883
642.673
642.445
642.201
641.941
641.666
641.376
641.071
640.754
640.422
640.08
639.726
639.361
638.987
638.603
638.211
637.81
637.403
636.989
636.569
636.144
635.714
635.28
634.842
634.402
633.959
633.514
633.067
632.619
632.17
631.722
631.273
630.825
630.377
629.933
629.487
629.046
628.605
628.17
627.732
627.303
626.872
626.449
626.027
625.61
625.199
624.788
624.384
623.984
623.589
623.199
622.814
622.436
622.059
621.69
621.326
620.967
620.613
620.265
619.923
619.586
619.255
618.93
618.61
618.296
617.988
617.686
617.389
617.098
616.813
616.534
616.26
615.992
615.729
615.472
615.22
614.974
614.734
614.499
614.269
614.045
613.825
613.611
613.402
613.197
613
612.805
612.616
612.432
612.252
612.077
611.907
611.741
611.58
611.424
611.272
611.124
610.98
610.84
610.705
610.573
610.446
610.322
610.204
610.087
609.975
609.866
609.761
609.659
609.561
609.466
609.375
609.287
609.202
609.12
609.041
608.965
608.893
608.823
608.756
608.692
608.631
608.572
608.516
608.462
608.412
608.364
608.32
608.276
608.236
608.198
608.162
608.129
608.098
608.069
608.042
608.018
607.995
607.975
607.956
607.941
607.927
607.915
607.905
607.897
607.89
607.886
607.883
607.882
607.883
607.886
607.891
607.897
607.905
607.914
607.926
607.939
607.955
607.971
607.989
608.009
608.03
608.054
608.079
608.105
608.133
608.163
608.194
608.226
608.26
608.296
608.333
608.371
608.412
608.454
608.497
608.541
608.588
608.635
608.685
608.735
608.788
608.842
608.897
608.953
609.012
609.071
609.133
609.195
609.26
609.325
609.393
609.461
609.531
609.603
609.676
609.752
609.828
609.906
609.985
610.066
610.149
610.232
610.318
610.405
610.495
610.584
610.677
610.769
610.865
610.961
611.059
611.159
611.261
611.365
611.47
611.576
611.685
611.794
611.906
612.02
612.136
612.252
612.372
612.492
612.614
612.738
612.864
612.992
613.122
613.254
613.387
613.522
613.659
613.798
613.938
614.081
614.227
614.374
614.523
614.674
614.826
614.981
615.138
615.298
615.459
615.622
615.788
615.956
616.125
616.297
616.472
616.649
616.828
617.009
617.19
617.376
617.564
617.755
617.947
618.143
618.341
618.541
618.743
618.948
619.155
619.366
619.577
619.793
620.011
620.231
620.454
620.68
620.908
621.138
621.37
621.607
621.846
622.088
622.333
622.58
622.83
623.084
623.339
623.599
623.859
624.126
624.393
624.664
624.937
625.214
625.494
625.777
626.064
626.351
626.644
626.938
627.237
627.538
627.842
628.151
628.46
628.777
629.094
629.412
629.738
630.065
630.395
630.73
631.063
631.407
631.75
632.099
632.445
632.802
633.157
633.519
633.879
634.252
634.616
634.996
635.367
635.752
636.134
636.521
636.91
637.304
637.701
638.1
638.503
638.909
639.318
639.733
640.143
640.567
640.987
641.412
641.84
642.27
642.704
643.143
643.576
644.028
644.464
644.918
645.367
645.823
646.273
646.738
647.197
647.66
648.126
648.596
649.065
649.54
650.006
650.492
650.964
651.452
651.933
652.419
652.904
653.393
653.882
654.374
654.866
655.36
655.855
656.354
656.844
657.35
657.847
658.351
658.844
659.352
659.852
660.357
660.852
661.365
661.858
662.371
662.865
663.375
663.876
664.379
664.88
665.382
665.882
666.382
666.88
667.378
667.875
668.371
668.865
669.361
669.845
670.344
670.824
671.317
671.8
672.283
672.763
673.242
673.718
674.191
674.663
675.133
675.594
676.064
676.522
676.98
677.435
677.888
678.336
678.783
679.22
679.666
680.096
680.534
680.96
681.386
681.808
682.226
682.64
683.05
683.457
683.86
684.26
684.653
685.047
685.434
685.814
686.197
686.571
686.942
687.309
687.672
688.028
688.385
688.734
689.081
689.422
689.76
690.091
690.422
690.745
691.068
691.384
691.694
692.003
692.305
692.606
692.899
693.191
693.477
693.758
694.037
694.31
694.58
694.846
695.107
695.364
695.617
695.866
696.111
696.352
696.589
696.821
697.049
697.274
697.495
697.711
697.924
698.132
698.337
698.538
698.735
698.929
699.118
699.303
699.485
699.663
699.837
700.007
700.172
700.336
700.495
700.651
700.802
700.95
701.092
701.233
701.369
701.502
701.631
701.757
701.879
701.999
702.112
702.226
702.334
702.439
702.541
702.639
702.734
702.825
702.912
702.997
703.076
703.154
703.223
703.294
703.36
703.417
703.479
703.527
703.58
703.624
703.664
703.701
703.732
703.761
703.784
703.804
703.818
703.831
703.831
703.84
703.829
703.829
703.816
703.803
703.778
703.761
703.732
703.704
703.665
703.634
703.593
703.551
703.507
703.463
703.409
703.363
703.312
703.256
703.207
703.154
703.096
703.045
702.987
702.934
702.879
702.826
702.773
702.722
702.669
702.62
702.569
702.521
702.474
702.428
702.382
702.339
702.295
702.254
702.213
702.173
702.134
702.095
702.06
702.024
701.99
701.957
701.922
701.892
701.86
701.829
701.8
701.771
701.742
701.714
701.687
701.66
701.634
701.607
701.583
701.558
701.534
701.511
701.487
701.465
701.441
701.419
701.397
701.376
701.356
701.335
701.314
701.295
701.275
701.256
701.238
701.219
701.202
701.184
701.167
701.15
701.133
701.117
701.101
701.086
701.071
701.057
701.043
701.029
701.016
701.003
700.99
700.978
700.967
700.956
700.945
700.935
700.925
700.916
700.907
700.899
700.892
700.885
700.879
700.873
700.868
700.863
700.859
700.856
700.854
700.853
700.851
700.851
700.851
700.853
700.854
700.858
700.861
700.867
700.873
700.879
700.886
700.895
700.904
700.915
700.926
700.939
700.954
700.968
700.984
701.002
701.019
701.039
701.061
701.083
701.107
701.132
701.158
701.188
701.216
701.249
701.281
701.315
701.353
701.39
701.429
701.471
701.513
701.56
701.606
701.656
701.707
701.76
701.815
701.874
701.933
701.995
702.059
702.126
702.196
702.267
702.341
702.418
702.498
702.58
702.665
702.753
702.845
702.938
703.035
703.135
703.237
703.343
703.454
703.566
703.682
703.802
703.925
704.051
704.183
704.316
704.455
704.594
704.741
704.888
705.041
705.198
705.358
705.523
705.692
705.865
706.042
706.222
706.409
706.597
706.791
706.986
707.188
707.392
707.603
707.815
708.032
708.252
708.478
708.705
708.937
709.172
709.411
709.653
709.897
710.145
710.396
710.648
710.903
711.163
711.42
711.68
711.944
712.206
712.47
712.734
712.998
713.26
713.522
713.783
714.042
714.298
714.551
714.8
715.045
715.284
715.516
715.745
715.966
716.185
716.401
716.606
716.787
716.955
717.12
717.283
717.423
717.544
717.659
717.763
717.849
717.924
717.993
718.058
718.109
718.152
718.187
718.217
718.243
718.269
718.294
718.319
718.332
718.343
644.427
644.395
644.355
644.28
644.198
644.109
644.018
643.92
643.814
643.697
643.565
643.42
643.259
643.081
642.887
642.676
642.448
642.203
641.943
641.667
641.377
641.072
640.754
640.422
640.079
639.725
639.36
638.985
638.601
638.208
637.808
637.4
636.985
636.565
636.14
635.71
635.276
634.838
634.397
633.954
633.509
633.062
632.614
632.165
631.716
631.267
630.819
630.371
629.928
629.481
629.04
628.599
628.164
627.726
627.297
626.867
626.443
626.022
625.604
625.193
624.783
624.379
623.979
623.584
623.194
622.809
622.431
622.055
621.686
621.321
620.963
620.609
620.261
619.919
619.582
619.251
618.926
618.607
618.293
617.985
617.683
617.386
617.095
616.81
616.531
616.258
615.99
615.727
615.47
615.218
614.972
614.732
614.497
614.268
614.043
613.824
613.609
613.401
613.196
612.999
612.804
612.616
612.431
612.252
612.077
611.906
611.741
611.58
611.424
611.272
611.124
610.98
610.84
610.706
610.573
610.447
610.323
610.204
610.088
609.976
609.867
609.762
609.66
609.562
609.467
609.377
609.288
609.203
609.121
609.043
608.967
608.894
608.825
608.758
608.694
608.633
608.574
608.518
608.464
608.414
608.366
608.322
608.279
608.238
608.2
608.165
608.131
608.1
608.071
608.044
608.02
607.998
607.978
607.959
607.943
607.93
607.918
607.907
607.899
607.893
607.889
607.886
607.885
607.886
607.889
607.893
607.9
607.908
607.917
607.929
607.942
607.958
607.974
607.992
608.013
608.034
608.057
608.082
608.108
608.137
608.166
608.197
608.23
608.263
608.299
608.336
608.375
608.415
608.457
608.5
608.545
608.591
608.639
608.688
608.739
608.791
608.845
608.9
608.957
609.015
609.074
609.136
609.198
609.263
609.329
609.396
609.465
609.535
609.607
609.68
609.755
609.831
609.909
609.989
610.069
610.152
610.236
610.322
610.408
610.498
610.587
610.68
610.773
610.868
610.964
611.063
611.163
611.265
611.368
611.473
611.579
611.688
611.798
611.91
612.023
612.139
612.256
612.375
612.495
612.617
612.741
612.867
612.995
613.125
613.257
613.39
613.525
613.662
613.801
613.941
614.084
614.23
614.377
614.525
614.676
614.829
614.984
615.141
615.3
615.462
615.625
615.791
615.958
616.128
616.3
616.474
616.651
616.83
617.011
617.193
617.379
617.567
617.757
617.95
618.145
618.343
618.543
618.746
618.951
619.157
619.368
619.58
619.795
620.013
620.233
620.456
620.682
620.91
621.14
621.372
621.609
621.848
622.09
622.334
622.582
622.832
623.086
623.341
623.6
623.861
624.127
624.395
624.666
624.939
625.215
625.495
625.778
626.065
626.352
626.645
626.939
627.238
627.539
627.843
628.152
628.461
628.778
629.095
629.412
629.739
630.066
630.396
630.73
631.064
631.407
631.75
632.099
632.446
632.802
633.157
633.519
633.879
634.252
634.616
634.996
635.367
635.752
636.133
636.52
636.91
637.303
637.7
638.099
638.502
638.909
639.317
639.732
640.142
640.566
640.985
641.41
641.838
642.269
642.702
643.14
643.574
644.026
644.462
644.916
645.365
645.821
646.27
646.735
647.194
647.657
648.123
648.592
649.062
649.537
650.003
650.489
650.961
651.448
651.93
652.415
652.9
653.389
653.878
654.369
654.862
655.355
655.85
656.349
656.839
657.346
657.842
658.345
658.839
659.347
659.846
660.351
660.847
661.359
661.852
662.365
662.859
663.369
663.87
664.372
664.873
665.375
665.875
666.375
666.873
667.371
667.868
668.364
668.858
669.353
669.838
670.336
670.817
671.309
671.792
672.275
672.756
673.234
673.71
674.183
674.655
675.125
675.586
676.055
676.514
676.972
677.427
677.879
678.327
678.774
679.212
679.657
680.088
680.525
680.952
681.377
681.799
682.217
682.631
683.041
683.448
683.852
684.251
684.643
685.038
685.425
685.805
686.188
686.562
686.933
687.3
687.663
688.019
688.376
688.725
689.071
689.413
689.751
690.083
690.413
690.736
691.059
691.374
691.685
691.994
692.296
692.597
692.89
693.182
693.468
693.749
694.028
694.302
694.571
694.837
695.098
695.356
695.609
695.857
696.102
696.343
696.58
696.813
697.041
697.266
697.486
697.703
697.916
698.124
698.329
698.53
698.727
698.921
699.11
699.295
699.477
699.655
699.829
700
700.164
700.328
700.487
700.643
700.794
700.943
701.085
701.226
701.361
701.495
701.624
701.749
701.871
701.991
702.104
702.218
702.327
702.432
702.534
702.632
702.727
702.818