/*--------------------------------*- C++ -*----------------------------------*\
  =========                 |
  \\      /  F ield         | OpenFOAM: The Open Source CFD Toolbox
   \\    /   O peration     | Website:  https://openfoam.org
    \\  /    A nd           | Version:  9
     \\/     M anipulation  |
\*---------------------------------------------------------------------------*/
FoamFile
{
    format      ascii;
    class       surfaceScalarField;
    location    "1282";
    object      phi;
}
// * * * * * * * * * * * * * * * * * * * * * * * * * * * * * * * * * * * * * //

dimensions      [0 3 -1 0 0 0 0];

internalField   nonuniform List<scalar> 
314985
(
4.32087e-05
-5.5686e-05
1.22869e-05
0.000113678
-7.56649e-05
0.000171132
-5.2212e-05
0.000176947
-5.6133e-06
0.000147978
2.98581e-05
9.71776e-05
4.98847e-05
3.50427e-05
6.31437e-05
-3.80677e-05
7.18736e-05
-0.000116209
7.80617e-05
-0.000198124
8.27734e-05
-0.0002846
8.55749e-05
-0.000373144
8.8354e-05
-0.000463785
9.05816e-05
-0.000556087
9.23568e-05
-0.000649593
9.36297e-05
-0.000744063
9.45459e-05
-0.000839215
9.51845e-05
-0.000934522
9.54656e-05
-0.00102999
9.55031e-05
-0.00112529
9.53379e-05
-0.00122031
9.4848e-05
-0.00131484
9.4495e-05
-0.00140796
9.43732e-05
-0.00150175
9.22682e-05
-0.0015938
9.19999e-05
-0.00168503
9.12009e-05
-0.00177523
9.03175e-05
-0.00186428
8.92531e-05
-0.00195227
8.81665e-05
-0.00203923
8.69651e-05
-0.002125
8.58235e-05
-0.00220968
8.45931e-05
-0.00229312
8.34103e-05
-0.00237547
8.21373e-05
-0.00245662
8.09559e-05
-0.00253644
7.98267e-05
-0.00261502
7.86853e-05
-0.00269245
7.74651e-05
-0.00276862
7.63041e-05
-0.00284371
7.50713e-05
-0.00291744
7.39416e-05
-0.00299007
7.26605e-05
-0.00306154
7.14562e-05
-0.0031319
7.02517e-05
-0.00320098
6.91413e-05
-0.00326896
6.80116e-05
-0.00333583
6.67095e-05
-0.00340187
6.5727e-05
-0.00346578
6.50695e-05
-0.00353005
6.27944e-05
-0.00359217
6.21953e-05
-0.00365364
6.13909e-05
-0.00371326
6.06364e-05
-0.00377334
5.86135e-05
-0.00383078
5.84747e-05
-0.00388855
5.65348e-05
-0.0039445
5.59759e-05
-0.00399966
5.50101e-05
-0.00405392
5.42864e-05
-0.00410652
5.37431e-05
-0.00415927
5.1836e-05
-0.00421038
5.11775e-05
-0.00426078
5.03202e-05
-0.00431018
4.94215e-05
-0.00435867
4.84623e-05
-0.00440635
4.76706e-05
-0.00445265
4.7095e-05
-0.00449894
4.5401e-05
-0.00454379
4.48962e-05
-0.00458805
4.41674e-05
-0.0046314
4.33871e-05
-0.00467398
4.25558e-05
-0.00471573
4.1797e-05
-0.00475673
4.09908e-05
-0.00479693
4.0243e-05
-0.00483637
3.94188e-05
-0.00487509
3.87108e-05
-0.00491307
3.79514e-05
-0.0049504
3.72174e-05
-0.00498703
3.65093e-05
-0.00502293
3.58363e-05
-0.00505816
3.51831e-05
-0.00509265
3.45686e-05
-0.00512655
3.38768e-05
-0.00515972
3.32337e-05
-0.00519233
3.25579e-05
-0.00522431
3.19831e-05
-0.0052558
3.13859e-05
-0.00528664
3.08343e-05
-0.00531693
3.02304e-05
-0.00534658
2.9681e-05
-0.00537576
2.90969e-05
-0.00540433
2.8549e-05
-0.00543231
2.79998e-05
-0.0054598
2.75206e-05
-0.00548683
2.69633e-05
-0.00551343
2.65616e-05
-0.00553934
2.61504e-05
-0.00556514
2.54339e-05
-0.00559003
2.51903e-05
-0.00561473
2.45178e-05
-0.0056388
2.4156e-05
-0.00566257
2.37466e-05
-0.00568592
2.33418e-05
-0.00570892
2.29255e-05
-0.00573147
2.25256e-05
-0.00575365
2.21528e-05
-0.00577535
2.17158e-05
-0.00579667
2.13394e-05
-0.00581753
2.09732e-05
-0.00583816
2.05877e-05
-0.00585837
2.02233e-05
-0.00587843
1.99385e-05
-0.0058979
1.9689e-05
-0.0059172
1.9244e-05
-0.00593603
1.89779e-05
-0.00595486
1.85691e-05
-0.00597294
1.83793e-05
-0.00599089
1.80208e-05
-0.0060086
1.77708e-05
-0.00602613
1.74465e-05
-0.00604334
1.71945e-05
-0.00606019
1.69181e-05
-0.0060769
1.65474e-05
-0.00609327
1.63287e-05
-0.00610933
1.61152e-05
-0.00612519
1.58444e-05
-0.00614076
1.56849e-05
-0.00615625
1.54016e-05
-0.00617147
1.51749e-05
-0.00618639
1.49581e-05
-0.00620108
1.47666e-05
-0.00621561
1.45053e-05
-0.00622992
1.4294e-05
-0.00624401
1.41389e-05
-0.00625795
1.39352e-05
-0.00627173
1.37641e-05
-0.00628526
1.35481e-05
-0.00629869
1.33109e-05
-0.00631196
1.31295e-05
-0.00632486
1.29577e-05
-0.00633774
1.27584e-05
-0.00635021
1.26702e-05
-0.00636288
1.24751e-05
-0.00637512
1.23444e-05
-0.00638743
1.22145e-05
-0.00639929
1.20598e-05
-0.00641116
1.19043e-05
-0.00642288
1.16596e-05
-0.00643442
1.1533e-05
-0.00644602
1.14407e-05
-0.00645723
1.12712e-05
-0.00646834
1.11436e-05
-0.00647934
1.09889e-05
-0.00649037
1.08543e-05
-0.00650096
1.06698e-05
-0.00651157
1.06297e-05
-0.00652208
1.04559e-05
-0.00653243
1.03393e-05
-0.00654265
1.0276e-05
-0.00655276
1.00839e-05
-0.00656276
9.96548e-06
-0.00657278
9.87747e-06
-0.00658244
9.70619e-06
-0.00659211
9.68681e-06
-0.0066017
9.55837e-06
-0.00661113
9.4609e-06
-0.0066205
9.31649e-06
-0.00662974
9.19253e-06
-0.00663883
9.08108e-06
-0.00664785
8.97659e-06
-0.00665666
8.82643e-06
-0.00666544
8.73326e-06
-0.00667406
8.63358e-06
-0.00668271
8.51735e-06
-0.00669117
8.37225e-06
-0.00669957
8.35552e-06
-0.00670783
8.16313e-06
-0.00671593
8.13736e-06
-0.00672396
7.99208e-06
-0.00673191
7.90787e-06
-0.00673974
7.83017e-06
-0.00674749
7.75732e-06
-0.00675517
7.62799e-06
-0.00676275
7.52499e-06
-0.00677018
7.43856e-06
-0.00677749
7.32938e-06
-0.00678477
7.19259e-06
-0.00679188
7.19199e-06
-0.00679896
6.95918e-06
-0.00680586
6.95153e-06
-0.00681271
6.831e-06
-0.00681943
6.74037e-06
-0.00682607
6.62042e-06
-0.00683257
6.51911e-06
-0.00683897
6.3845e-06
-0.00684526
6.30408e-06
-0.00685148
6.19862e-06
-0.00685758
6.10776e-06
-0.00686358
5.97275e-06
-0.0068695
5.9093e-06
-0.00687524
5.88775e-06
-0.00688098
5.59476e-06
-0.00688649
5.5383e-06
-0.00689193
5.44451e-06
-0.00689727
5.34602e-06
-0.00690251
5.22758e-06
-0.00690764
5.13332e-06
-0.00691265
5.01142e-06
-0.00691756
4.93363e-06
-0.00692226
4.90343e-06
-0.00692699
4.58393e-06
-0.00693151
4.5367e-06
-0.00693595
4.43413e-06
-0.00694027
4.33267e-06
-0.00694447
4.20897e-06
-0.00694859
4.13251e-06
-0.00695245
4.08992e-06
-0.00695643
3.77038e-06
-0.00695999
3.78983e-06
-0.00696373
3.51143e-06
-0.00696707
3.57134e-06
-0.00697055
3.24725e-06
-0.00697378
3.21032e-06
-0.00697688
3.10528e-06
-0.00697987
3.00015e-06
-0.00698269
2.85626e-06
-0.00698541
2.73027e-06
-0.00698797
2.59924e-06
-0.00699045
2.49809e-06
-0.00699278
2.38e-06
-0.00699486
2.37254e-06
-0.00699704
2.00597e-06
-0.00699894
1.8948e-06
-0.00700074
1.81125e-06
-0.0070022
1.77184e-06
-0.00700386
1.46258e-06
-0.00700505
1.50741e-06
-0.0070064
1.18974e-06
-0.00700744
1.08008e-06
-0.0070084
9.75698e-07
-0.0070092
8.01381e-07
-0.00700985
6.59975e-07
-0.00701034
5.25775e-07
-0.00701054
4.98803e-07
-0.00701093
2.00524e-07
-0.00701106
1.27604e-07
-0.0070111
5.26127e-08
-0.0070107
-3.99828e-07
-0.00700968
-1.00496e-06
-0.00700878
-9.08531e-07
-0.00700803
-7.49169e-07
-0.00700711
-9.05105e-07
-0.00700609
-1.01286e-06
-0.00700473
-1.19549e-06
-0.00700348
-1.51035e-06
-0.00700192
-1.57483e-06
-0.00700023
-1.71687e-06
-0.00699834
-1.83702e-06
-0.00699623
-1.95109e-06
-0.00699418
-2.22266e-06
-0.00699188
-2.31862e-06
-0.0069894
-2.41002e-06
-0.00698673
-2.53261e-06
-0.00698409
-2.81357e-06
-0.00698125
-2.87672e-06
-0.00697838
-2.84325e-06
-0.00697538
-2.88477e-06
-0.00697189
-3.66227e-06
-0.00696719
-4.68876e-06
-0.00696272
-4.45567e-06
-0.00695867
-4.03149e-06
-0.0069545
-4.25341e-06
-0.00695018
-4.38578e-06
-0.00694553
-4.58584e-06
-0.0069407
-4.8408e-06
-0.00693586
-4.96578e-06
-0.00693074
-5.09303e-06
-0.00692543
-5.27882e-06
-0.00692002
-5.4512e-06
-0.00691431
-5.53719e-06
-0.00690864
-5.84397e-06
-0.00690259
-5.8211e-06
-0.00689654
-6.12444e-06
-0.00689027
-6.29658e-06
-0.00688386
-6.34742e-06
-0.00687744
-6.34977e-06
-0.00687103
-6.43334e-06
-0.00686388
-7.34211e-06
-0.00685546
-8.05764e-06
-0.00684734
-8.1173e-06
-0.00683986
-7.85032e-06
-0.00683192
-7.73052e-06
-0.00682391
-8.09339e-06
-0.00681563
-8.28899e-06
-0.00680719
-8.49271e-06
-0.00679842
-8.64781e-06
-0.0067897
-8.7848e-06
-0.00678058
-9.12979e-06
-0.00677153
-9.53144e-06
-0.00676203
-9.19982e-06
-0.00675237
-9.53134e-06
-0.0067425
-9.75165e-06
-0.00673267
-9.88674e-06
-0.00672253
-1.01717e-05
-0.00671226
-1.03442e-05
-0.00670187
-1.02471e-05
-0.00669132
-1.05184e-05
-0.00668042
-1.15717e-05
-0.00666784
-1.18275e-05
-0.00665594
-1.20205e-05
-0.00664424
-1.1579e-05
-0.0066323
-1.18651e-05
-0.00662018
-1.20144e-05
-0.0066077
-1.24903e-05
-0.00659548
-1.31327e-05
-0.00658234
-1.22512e-05
-0.00656929
-1.31732e-05
-0.00655646
-1.37025e-05
-0.00654256
-1.27124e-05
-0.00652887
-1.3615e-05
-0.00651512
-1.37064e-05
-0.0065008
-1.42666e-05
-0.00648708
-1.51128e-05
-0.00647216
-1.40537e-05
-0.00645757
-1.46773e-05
-0.00644252
-1.49369e-05
-0.00642818
-1.57353e-05
-0.00641201
-1.50701e-05
-0.00639531
-1.65915e-05
-0.00637851
-1.68356e-05
-0.00636285
-1.7012e-05
-0.00634544
-1.59957e-05
-0.00632948
-1.734e-05
-0.00631151
-1.63177e-05
-0.006295
-1.80465e-05
-0.0062767
-1.66098e-05
-0.00625901
-1.77304e-05
-0.00624095
-1.81554e-05
-0.00622267
-1.82575e-05
-0.00620407
-1.86515e-05
-0.0061852
-1.90277e-05
-0.0061661
-1.91857e-05
-0.00614677
-1.94736e-05
-0.00612702
-1.97445e-05
-0.00610729
-1.96683e-05
-0.00608696
-2.01251e-05
-0.00606771
-2.12667e-05
-0.00604608
-1.97652e-05
-0.00602422
-2.18527e-05
-0.00600219
-2.17624e-05
-0.00598062
-2.15738e-05
-0.00595868
-2.20445e-05
-0.00593647
-2.21248e-05
-0.00591357
-2.2918e-05
-0.00589181
-2.40133e-05
-0.00586722
-2.20664e-05
-0.00584514
-2.47912e-05
-0.00582046
-2.23618e-05
-0.00579652
-2.36493e-05
-0.00577219
-2.45885e-05
-0.00574852
-2.58117e-05
-0.0057225
-2.31891e-05
-0.0056976
-2.4919e-05
-0.00567225
-2.53443e-05
-0.00564641
-2.55355e-05
-0.0056204
-2.58257e-05
-0.00559446
-2.57371e-05
-0.00556708
-2.71724e-05
-0.00554078
-2.95601e-05
-0.00551152
-2.68102e-05
-0.00548513
-2.90519e-05
-0.00545606
-2.61947e-05
-0.00542787
-2.78261e-05
-0.005399
-2.83323e-05
-0.00537035
-2.87528e-05
-0.00534088
-2.91531e-05
-0.00531139
-2.93847e-05
-0.00528166
-2.98308e-05
-0.00525116
-3.01071e-05
-0.00522088
-3.0433e-05
-0.00519018
-3.04224e-05
-0.00515841
-3.14867e-05
-0.00512845
-3.278e-05
-0.00509554
-2.96051e-05
-0.00506383
-3.15477e-05
-0.00503145
-3.25434e-05
-0.00500036
-3.41318e-05
-0.00496612
-3.06915e-05
-0.00493237
-3.33001e-05
-0.00489781
-3.43454e-05
-0.00486566
-3.56129e-05
-0.00482951
-3.26785e-05
-0.00479702
-3.602e-05
-0.0047605
-3.32985e-05
-0.00472706
-3.68499e-05
-0.00469058
-3.30615e-05
-0.00465503
-3.52156e-05
-0.00461891
-3.56319e-05
-0.00458297
-3.60203e-05
-0.00454637
-3.64996e-05
-0.00450972
-3.67934e-05
-0.00447279
-3.70831e-05
-0.00443551
-3.70667e-05
-0.00439804
-3.75987e-05
-0.00436031
-3.80005e-05
-0.00432219
-3.78834e-05
-0.00428422
-3.78786e-05
-0.00424507
-3.88654e-05
-0.0042074
-4.06509e-05
-0.00416608
-3.76655e-05
-0.00412854
-4.0973e-05
-0.00408796
-3.75924e-05
-0.0040483
-3.95847e-05
-0.00400804
-3.98253e-05
-0.00396796
-4.01047e-05
-0.00392743
-4.03919e-05
-0.00388672
-4.06233e-05
-0.0038458
-4.07546e-05
-0.00380471
-4.09061e-05
-0.003763
-4.16385e-05
-0.00372283
-4.32107e-05
-0.00367994
-3.98645e-05
-0.00363835
-4.17934e-05
-0.0035963
-4.20329e-05
-0.00355418
-4.21836e-05
-0.00351177
-4.21726e-05
-0.00346947
-4.21797e-05
-0.00342635
-4.27768e-05
-0.00338461
-4.43171e-05
-0.00333964
-4.17577e-05
-0.00329787
-4.41718e-05
-0.00325341
-4.13278e-05
-0.00321024
-4.3271e-05
-0.00316665
-4.35515e-05
-0.00312291
-4.34074e-05
-0.00307906
-4.36996e-05
-0.003035
-4.40482e-05
-0.00299101
-4.40739e-05
-0.00294668
-4.42711e-05
-0.00290232
-4.41266e-05
-0.00285763
-4.4471e-05
-0.00281408
-4.53367e-05
-0.0027687
-4.27016e-05
-0.00272388
-4.45306e-05
-0.00268003
-4.55122e-05
-0.00263443
-4.32246e-05
-0.00258984
-4.45345e-05
-0.00254504
-4.47416e-05
-0.00249988
-4.49611e-05
-0.00245436
-4.55411e-05
-0.00240986
-4.60527e-05
-0.00236403
-4.40542e-05
-0.00231878
-4.51958e-05
-0.00227337
-4.53579e-05
-0.00222793
-4.54228e-05
-0.00218226
-4.55844e-05
-0.00213731
-4.60731e-05
-0.00209134
-4.46533e-05
-0.00204625
-4.60929e-05
-0.00200038
-4.47186e-05
-0.00195463
-4.57291e-05
-0.00190942
-4.61986e-05
-0.00186331
-4.49766e-05
-0.00181794
-4.60628e-05
-0.00177188
-4.49912e-05
-0.00172649
-4.58412e-05
-0.0016809
-4.48829e-05
-0.00163521
-4.53921e-05
-0.0015898
-4.57041e-05
-0.00154369
-4.5388e-05
-0.001498
-4.56949e-05
-0.00145234
-4.56238e-05
-0.00140635
-4.5687e-05
-0.00136046
-4.54376e-05
-0.00131486
-4.51921e-05
-0.00126897
-4.56284e-05
-0.00122312
-4.57217e-05
-0.00117739
-4.57928e-05
-0.00113154
-4.57335e-05
-0.00108562
-4.5686e-05
-0.00103974
-4.56525e-05
-0.000994131
-4.56305e-05
-0.000947875
-4.50071e-05
-0.000902282
-4.56508e-05
-0.000856468
-4.56833e-05
-0.00081035
-4.53736e-05
-0.000765144
-4.61756e-05
-0.000719366
-4.57815e-05
-0.000673626
-4.56585e-05
-0.000627661
-4.57223e-05
-0.000581144
-4.50415e-05
-0.000535731
-4.65754e-05
-0.000489866
-4.59729e-05
-0.000444007
-4.58944e-05
-0.000397997
-4.58789e-05
-0.00035219
-4.59093e-05
-0.000305531
-4.50883e-05
-0.000260646
-4.70873e-05
-0.000214535
-4.5956e-05
-0.000168553
-4.58449e-05
-0.000122648
-4.56163e-05
-7.67737e-05
-4.55933e-05
-3.00535e-05
-4.38296e-05
1.47665e-05
-4.69527e-05
6.0707e-05
-4.56748e-05
0.000106304
-4.54034e-05
0.000151884
-4.54222e-05
0.000197349
-4.51582e-05
0.000242214
-4.4591e-05
0.000287339
-4.49066e-05
0.000333453
-4.31987e-05
0.000377178
-4.67733e-05
0.000422545
-4.52138e-05
0.000467612
-4.51143e-05
0.000512606
-4.48883e-05
0.000557494
-4.48294e-05
0.000602377
-4.45486e-05
0.000647249
-4.46943e-05
0.000691865
-4.44631e-05
0.000736465
-4.45301e-05
0.000780963
-4.46485e-05
0.000825474
-4.4198e-05
0.000871625
-4.14681e-05
0.000914561
-4.70238e-05
0.000958958
-4.4447e-05
0.0010048
-4.14457e-05
0.00104709
-4.73521e-05
0.00109366
-4.16215e-05
0.00113597
-4.78289e-05
0.00118026
-4.44625e-05
0.00122428
-4.40069e-05
0.00126841
-4.38996e-05
0.00131224
-4.35302e-05
0.00135571
-4.35754e-05
0.00139904
-4.32346e-05
0.00144228
-4.30512e-05
0.00148502
-4.30525e-05
0.00152743
-4.25584e-05
0.00157177
-3.86206e-05
0.00161165
-4.55921e-05
0.00165596
-3.88484e-05
0.00169511
-4.50382e-05
0.00173639
-4.13533e-05
0.00177667
-3.98192e-05
0.00181822
-3.66789e-05
0.00185552
-4.29291e-05
0.00189466
-3.90912e-05
0.0019322
-3.74067e-05
0.00197188
-3.38095e-05
0.0020062
-3.91552e-05
0.00204234
-3.56838e-05
0.00207666
-3.42302e-05
0.00211044
-3.36207e-05
0.00214289
-3.25113e-05
0.00217665
-2.97136e-05
0.0022056
-3.38024e-05
0.00223561
-3.03315e-05
0.00226613
-2.72317e-05
0.00229218
-3.05794e-05
0.0023191
-2.70526e-05
0.00234606
-2.37453e-05
0.00236863
-2.59989e-05
0.00239464
-2.21163e-05
0.00241607
-2.37453e-05
0.00243795
-2.15658e-05
0.0024582
-2.03604e-05
0.00247778
-1.95285e-05
0.00249632
-1.88029e-05
0.00251596
-1.74857e-05
0.00253127
-1.81642e-05
0.00254898
-1.54584e-05
0.00256301
-1.62553e-05
0.00257765
-1.48529e-05
0.00259123
-1.37399e-05
0.00260576
-1.256e-05
0.00261696
-1.3415e-05
0.00263034
-1.17408e-05
0.00264067
-1.24014e-05
0.00265194
-1.14717e-05
0.00266239
-1.05492e-05
0.00267239
-9.91286e-06
0.00268284
-9.56592e-06
0.00269096
-1.05438e-05
0.0026998
-9.10146e-06
0.00270832
-8.73173e-06
0.00271635
-8.22336e-06
0.00272548
-7.57002e-06
0.00273276
-9.00769e-06
0.00274099
-8.25202e-06
0.00274834
-7.41432e-06
0.00275533
-7.21198e-06
0.00276234
-7.07654e-06
0.00276917
-7.11323e-06
0.00277607
-6.90622e-06
0.00278289
-6.94874e-06
0.00278966
-6.82244e-06
0.00279637
-6.66321e-06
0.00280392
-6.31507e-06
0.00280992
-7.50811e-06
0.0028168
-6.7962e-06
0.00282339
-6.68015e-06
0.00283006
-6.64479e-06
0.00283767
-6.35917e-06
0.00284396
-7.47574e-06
0.00285103
-6.98103e-06
0.00285789
-6.82319e-06
0.00286549
-6.75248e-06
0.00287217
-7.97223e-06
0.00287982
-7.96401e-06
0.00288695
-7.23986e-06
0.00289477
-6.75551e-06
0.00290134
-7.71722e-06
0.00290872
-7.35227e-06
0.00291653
-7.1155e-06
0.00292343
-8.01461e-06
0.00293092
-7.54356e-06
0.00293847
-7.67039e-06
0.00294603
-7.6294e-06
0.00295379
-7.72824e-06
0.00296145
-7.67608e-06
0.00296968
-7.71237e-06
0.00297703
-8.12308e-06
0.00298489
-7.86762e-06
0.00299258
-7.67241e-06
0.00300068
-7.64965e-06
0.00300807
-8.02602e-06
0.00301591
-7.88882e-06
0.00302392
-8.02714e-06
0.00303217
-8.19788e-06
0.00303977
-7.6686e-06
0.00304715
-7.36833e-06
0.00305472
-7.27132e-06
0.003062
-7.53425e-06
0.00306925
-7.29032e-06
0.00307665
-7.35604e-06
0.00308387
-7.28652e-06
0.0030911
-7.28697e-06
0.00309809
-7.05516e-06
0.00310515
-7.11261e-06
0.00311174
-6.84299e-06
0.00311861
-6.82356e-06
0.00312504
-6.59785e-06
0.00313164
-6.66712e-06
0.00313801
-6.33692e-06
0.00314423
-6.19257e-06
0.00315024
-6.05093e-06
0.00315613
-6.10285e-06
0.00316213
-5.88564e-06
0.00316816
-5.9365e-06
0.00317353
-5.46865e-06
0.00317864
-5.09193e-06
0.00318354
-4.94125e-06
0.00318847
-4.95904e-06
0.00319301
-4.96826e-06
0.00319777
-4.44965e-06
0.00320181
-4.52119e-06
0.00320612
-4.02223e-06
0.00320988
-3.8688e-06
0.00321368
-4.28318e-06
0.00321751
-3.38502e-06
0.00322091
-3.40815e-06
0.00322384
-3.48338e-06
0.00322718
-2.69317e-06
0.0032298
-2.59478e-06
0.00323241
-2.62284e-06
0.0032346
-2.45407e-06
0.00323664
-2.69012e-06
0.00323918
-1.94593e-06
0.0032413
-2.14758e-06
0.00324247
-1.83698e-06
0.003244
-6.43272e-07
0.0032445
-6.47393e-07
0.00324536
-7.26995e-07
0.00324582
-5.54438e-07
0.00324614
-3.49389e-07
0.00324618
-8.60039e-08
0.00324607
6.07874e-08
0.00324513
-2.17719e-08
0.00324488
1.08069e-06
0.00324334
7.93106e-07
0.00324264
1.56656e-06
0.00324109
1.51625e-06
0.00323909
1.00654e-06
0.00323753
2.43148e-06
0.00323518
2.36026e-06
0.00323263
2.5253e-06
0.00322981
2.71326e-06
0.00322647
2.39035e-06
0.00322378
3.59185e-06
0.00321953
4.12686e-06
0.00321512
4.41758e-06
0.00321048
4.65509e-06
0.00320581
4.65939e-06
0.00320022
4.54658e-06
0.00319552
5.90332e-06
0.00318961
5.90596e-06
0.00318372
5.81647e-06
0.00317744
6.15464e-06
0.00317032
5.89997e-06
0.00316385
7.34694e-06
0.00315633
7.53344e-06
0.00314866
7.69797e-06
0.0031407
7.96795e-06
0.0031322
8.31421e-06
0.00312348
8.64653e-06
0.00311445
9.0442e-06
0.00310428
8.90308e-06
0.00309515
1.03561e-05
0.00308458
1.06886e-05
0.00307361
1.10355e-05
0.00306214
1.14676e-05
0.0030504
1.16977e-05
0.00303748
1.13149e-05
0.00302565
1.29407e-05
0.00301231
1.31689e-05
0.00299902
1.35278e-05
0.00298484
1.38027e-05
0.00297054
1.42919e-05
0.00295486
1.43575e-05
0.00294025
1.6168e-05
0.00292332
1.58209e-05
0.0029081
1.73562e-05
0.00288985
1.6738e-05
0.00287332
1.84305e-05
0.00285493
1.84339e-05
0.0028363
1.86475e-05
0.00281708
1.88519e-05
0.0027969
1.93032e-05
0.00277575
2.04128e-05
0.00275424
2.13505e-05
0.00273224
2.21206e-05
0.00271006
2.24619e-05
0.00268601
2.23333e-05
0.00266299
2.4342e-05
0.0026379
2.50274e-05
0.00261411
2.68366e-05
0.00258803
2.64151e-05
0.00256179
2.615e-05
0.00253343
2.60372e-05
0.00250657
2.87625e-05
0.00247751
2.8921e-05
0.00244856
2.91969e-05
0.00241711
2.89532e-05
0.00238733
3.16031e-05
0.00235506
3.18477e-05
0.00232281
3.25018e-05
0.0022891
3.35697e-05
0.00225464
3.44935e-05
0.00221828
3.62458e-05
0.00218187
3.6816e-05
0.00214458
3.71847e-05
0.002107
3.80579e-05
0.00206859
3.85633e-05
0.00202793
3.81625e-05
0.00198887
4.15697e-05
0.00194733
4.16543e-05
0.00190367
4.13424e-05
0.00186156
4.46751e-05
0.00181671
4.48634e-05
0.00177173
4.49728e-05
0.00172541
4.62474e-05
0.00167833
4.71677e-05
0.00163012
4.80932e-05
0.00158117
4.8878e-05
0.00153084
4.98861e-05
0.00147976
5.11407e-05
0.0014273
5.2195e-05
0.00137399
5.3485e-05
0.00131874
5.53596e-05
0.00126386
5.52374e-05
0.00120893
5.46333e-05
0.0011498
5.12117e-05
0.00111172
4.58264e-05
0.00108811
3.07404e-05
0.00103403
4.80337e-05
0.000956267
7.72578e-05
0.000847786
0.000107463
0.000750302
9.85441e-05
0.000695558
5.48034e-05
0.000659745
3.71161e-05
0.000553178
0.000105299
0.000447398
0.000104969
0.000370815
7.55937e-05
0.000284678
6.97245e-05
0.000234025
6.52177e-05
0.000184807
4.93839e-05
0.000167058
1.73571e-05
0.000135565
3.08788e-05
8.65994e-05
4.87448e-05
3.97971e-05
4.6881e-05
-2.02467e-06
4.19762e-05
-4.21708e-05
4.04405e-05
-7.85342e-05
3.61197e-05
-0.000105683
2.7425e-05
-0.000118711
1.28568e-05
-0.000112636
-6.22423e-06
-7.96871e-05
-3.29576e-05
-3.33903e-05
-4.62967e-05
-4.45492e-05
1.14902e-05
5.32254e-05
-0.000103944
-5.33646e-06
0.000126531
-0.000152425
0.000170197
-9.25716e-05
0.000168615
-3.73017e-06
0.000135894
6.29014e-05
8.16957e-05
0.000103848
1.39535e-05
0.000131482
-6.40717e-05
0.000149484
-0.000148217
0.000162248
-0.000236969
0.000171976
-0.00032992
0.000178225
-0.000425512
0.000183978
-0.000523357
0.000188468
-0.000623007
0.000192055
-0.000723986
0.000194726
-0.000825956
0.000196589
-0.000928572
0.000197801
-0.00103143
0.000198477
-0.00113437
0.000198515
-0.00123712
0.000198141
-0.00133952
0.000197183
-0.00144133
0.000196275
-0.00154212
0.000195637
-0.00164268
0.000192176
-0.00174197
0.000191303
-0.00184024
0.00018945
-0.00193744
0.000187584
-0.00203343
0.000185379
-0.00212827
0.000183119
-0.00222193
0.000180629
-0.00231434
0.000178277
-0.00240552
0.000175722
-0.0024954
0.000173287
-0.00258404
0.000170638
-0.00267138
0.000168168
-0.00275734
0.000165741
-0.00284199
0.000163422
-0.00292534
0.000160842
-0.00300739
0.000158426
-0.00308817
0.000155831
-0.00316759
0.000153479
-0.00324576
0.000150846
-0.00332267
0.000148354
-0.00339834
0.000145826
-0.00347271
0.000143546
-0.00354583
0.000141109
-0.00361779
0.000138524
-0.00368861
0.0001363
-0.00375776
0.000134717
-0.00382636
0.000130696
-0.00389339
0.000129252
-0.00395937
0.000127294
-0.00402386
0.000125494
-0.00408788
0.000121842
-0.00415008
0.000121155
-0.00421175
0.000117568
-0.00427202
0.000116264
-0.00433128
0.000114163
-0.00438951
0.000112471
-0.00444633
0.000111054
-0.00450265
0.000107681
-0.00455767
0.000106246
-0.00461176
0.000104349
-0.0046648
0.000102446
-0.00471689
0.0001005
-0.00476804
9.87558e-05
-0.00481798
9.73439e-05
-0.00486741
9.43576e-05
-0.00491571
9.32046e-05
-0.00496318
9.15635e-05
-0.00500975
8.99406e-05
-0.00505545
8.82056e-05
-0.0051003
8.66351e-05
-0.00514431
8.49576e-05
-0.00518748
8.34134e-05
-0.00522984
8.17474e-05
-0.00527142
8.02732e-05
-0.00531222
7.87018e-05
-0.00535228
7.72079e-05
-0.00539159
7.57585e-05
-0.00543015
7.43443e-05
-0.00546798
7.29856e-05
-0.00550506
7.16573e-05
-0.00554147
7.02494e-05
-0.00557715
6.89211e-05
-0.00561221
6.75749e-05
-0.00564661
6.63829e-05
-0.00568043
6.51545e-05
-0.00571359
6.39976e-05
-0.00574616
6.27536e-05
-0.00577808
6.16091e-05
-0.00580943
6.04215e-05
-0.00584019
5.92899e-05
-0.00587035
5.81554e-05
-0.00589999
5.71777e-05
-0.00592912
5.60808e-05
-0.00595776
5.51727e-05
-0.00598577
5.4259e-05
-0.00601344
5.29528e-05
-0.00604041
5.22685e-05
-0.00606702
5.1027e-05
-0.00609309
5.02374e-05
-0.00611877
4.94308e-05
-0.006144
4.85963e-05
-0.00616883
4.77648e-05
-0.00619319
4.69106e-05
-0.00621715
4.61024e-05
-0.00624064
4.52143e-05
-0.00626374
4.4421e-05
-0.00628639
4.36353e-05
-0.00630875
4.29387e-05
-0.00633071
4.21965e-05
-0.00635241
4.15559e-05
-0.00637362
4.09067e-05
-0.00639454
4.01105e-05
-0.00641508
3.95221e-05
-0.00643543
3.87959e-05
-0.00645525
3.82151e-05
-0.00647484
3.76138e-05
-0.00649417
3.70989e-05
-0.00651325
3.65124e-05
-0.00653202
3.59386e-05
-0.00655045
3.53642e-05
-0.00656867
3.47371e-05
-0.00658658
3.41989e-05
-0.0066042
3.36859e-05
-0.0066216
3.3217e-05
-0.00663873
3.28019e-05
-0.0066557
3.23196e-05
-0.0066724
3.18386e-05
-0.00668883
3.13727e-05
-0.00670503
3.09196e-05
-0.00672103
3.04676e-05
-0.00673681
3.00402e-05
-0.00675238
2.97109e-05
-0.00676777
2.9326e-05
-0.00678298
2.89437e-05
-0.00679796
2.85101e-05
-0.00681279
2.81075e-05
-0.00682744
2.76661e-05
-0.0068418
2.73369e-05
-0.00685608
2.68856e-05
-0.00687004
2.66781e-05
-0.00688405
2.63431e-05
-0.00689773
2.60829e-05
-0.00691138
2.57556e-05
-0.0069247
2.54401e-05
-0.00693797
2.51301e-05
-0.00695107
2.47528e-05
-0.00696401
2.44681e-05
-0.0069769
2.4249e-05
-0.00698951
2.39516e-05
-0.00700203
2.36569e-05
-0.00701441
2.33383e-05
-0.00702672
2.30485e-05
-0.00703873
2.2723e-05
-0.00705071
2.25792e-05
-0.00706256
2.22904e-05
-0.00707428
2.20394e-05
-0.00708586
2.18244e-05
-0.00709735
2.15409e-05
-0.00710871
2.13013e-05
-0.00712001
2.1076e-05
-0.00713107
2.07725e-05
-0.0071421
2.0685e-05
-0.00715302
2.04588e-05
-0.00716381
2.02472e-05
-0.00717451
2.00107e-05
-0.00718509
1.97648e-05
-0.00719552
1.95148e-05
-0.00720586
1.92799e-05
-0.00721604
1.90099e-05
-0.00722616
1.88258e-05
-0.00723615
1.86352e-05
-0.00724611
1.84421e-05
-0.0072559
1.81731e-05
-0.00726563
1.80725e-05
-0.0072752
1.77176e-05
-0.00728466
1.75935e-05
-0.00729402
1.73508e-05
-0.00730331
1.71862e-05
-0.00731249
1.70042e-05
-0.00732158
1.68363e-05
-0.00733058
1.66273e-05
-0.00733949
1.64245e-05
-0.00734826
1.6213e-05
-0.00735692
1.59863e-05
-0.00736551
1.57704e-05
-0.00737397
1.56878e-05
-0.00738235
1.52955e-05
-0.00739062
1.52157e-05
-0.00739879
1.5001e-05
-0.00740685
1.48038e-05
-0.00741481
1.45775e-05
-0.00742264
1.43593e-05
-0.00743037
1.4114e-05
-0.00743801
1.39443e-05
-0.00744555
1.37412e-05
-0.00745298
1.35497e-05
-0.00746032
1.33127e-05
-0.00746756
1.31579e-05
-0.00747464
1.30582e-05
-0.00748166
1.256e-05
-0.00748851
1.24223e-05
-0.00749528
1.22302e-05
-0.00750195
1.20233e-05
-0.00750851
1.17938e-05
-0.00751496
1.15949e-05
-0.0075213
1.13568e-05
-0.00752751
1.11841e-05
-0.00753355
1.1067e-05
-0.00753956
1.0523e-05
-0.00754541
1.04201e-05
-0.00755116
1.01933e-05
-0.0075568
9.98014e-06
-0.00756232
9.74873e-06
-0.00756773
9.55661e-06
-0.00757294
9.4244e-06
-0.00757815
8.87372e-06
-0.00758307
8.84652e-06
-0.00758805
8.36439e-06
-0.00759275
8.39817e-06
-0.00759747
7.84639e-06
-0.007602
7.75007e-06
-0.00760639
7.50448e-06
-0.00761066
7.2712e-06
-0.00761477
7.0002e-06
-0.00761876
6.72747e-06
-0.00762261
6.49168e-06
-0.00762634
6.25072e-06
-0.00762993
6.03088e-06
-0.00763331
5.92622e-06
-0.00763668
5.29907e-06
-0.00763983
5.08663e-06
-0.00764285
4.83973e-06
-0.00764562
4.68385e-06
-0.00764843
4.1443e-06
-0.00765092
4.16568e-06
-0.00765342
3.60612e-06
-0.0076557
3.41581e-06
-0.00765785
3.15109e-06
-0.00765983
2.82459e-06
-0.00766165
2.49387e-06
-0.00766331
2.20704e-06
-0.00766474
2.07626e-06
-0.00766621
1.55016e-06
-0.00766743
1.39093e-06
-0.00766846
1.10986e-06
-0.00766925
3.97356e-07
-0.0076698
-4.32093e-07
-0.00767028
-4.39743e-07
-0.00767067
-3.54009e-07
-0.00767089
-6.79089e-07
-0.00767092
-9.85257e-07
-0.00767072
-1.32052e-06
-0.00767056
-1.81984e-06
-0.00767011
-2.04694e-06
-0.00766949
-2.33642e-06
-0.00766867
-2.64055e-06
-0.00766763
-2.89718e-06
-0.00766657
-3.4168e-06
-0.00766528
-3.60962e-06
-0.0076638
-3.8696e-06
-0.00766206
-4.15915e-06
-0.0076603
-4.66733e-06
-0.00765836
-4.80533e-06
-0.00765619
-4.99053e-06
-0.00765372
-5.31468e-06
-0.00765101
-6.49883e-06
-0.00764788
-7.85312e-06
-0.00764471
-7.64522e-06
-0.00764149
-7.23154e-06
-0.0076381
-7.70151e-06
-0.00763446
-8.03965e-06
-0.0076306
-8.41938e-06
-0.00762657
-8.84684e-06
-0.00762242
-9.18144e-06
-0.00761799
-9.53788e-06
-0.00761337
-9.92435e-06
-0.00760858
-1.02975e-05
-0.00760353
-1.05713e-05
-0.00759838
-1.10991e-05
-0.0075929
-1.12452e-05
-0.00758727
-1.18104e-05
-0.00758147
-1.21109e-05
-0.00757549
-1.23202e-05
-0.00756928
-1.25227e-05
-0.00756284
-1.29184e-05
-0.007556
-1.42615e-05
-0.00754865
-1.52707e-05
-0.00754129
-1.54478e-05
-0.00753397
-1.53027e-05
-0.00752629
-1.53577e-05
-0.00751839
-1.59981e-05
-0.00751032
-1.6352e-05
-0.00750204
-1.67686e-05
-0.00749342
-1.71723e-05
-0.00748469
-1.75663e-05
-0.00747563
-1.81851e-05
-0.00746646
-1.89163e-05
-0.00745693
-1.86222e-05
-0.00744717
-1.92332e-05
-0.00743717
-1.96664e-05
-0.00742701
-2.01116e-05
-0.00741664
-2.05583e-05
-0.00740603
-2.09709e-05
-0.00739509
-2.11045e-05
-0.00738383
-2.17495e-05
-0.00737237
-2.33812e-05
-0.00736013
-2.36701e-05
-0.00734808
-2.4167e-05
-0.00733582
-2.37821e-05
-0.00732328
-2.43504e-05
-0.00731042
-2.47878e-05
-0.00729737
-2.55408e-05
-0.00728428
-2.66981e-05
-0.00727047
-2.56291e-05
-0.00725661
-2.71015e-05
-0.00724271
-2.8075e-05
-0.00722804
-2.68339e-05
-0.00721335
-2.82094e-05
-0.00719846
-2.8595e-05
-0.00718314
-2.95244e-05
-0.00716791
-3.09793e-05
-0.00715197
-2.95789e-05
-0.00713597
-3.06833e-05
-0.00711954
-3.12489e-05
-0.00710316
-3.28011e-05
-0.00708576
-3.19829e-05
-0.00706812
-3.4141e-05
-0.00705029
-3.46749e-05
-0.0070327
-3.53104e-05
-0.007014
-3.39726e-05
-0.00699585
-3.61797e-05
-0.0069766
-3.45867e-05
-0.00695792
-3.76299e-05
-0.00693804
-3.56962e-05
-0.00691831
-3.74998e-05
-0.00689824
-3.83153e-05
-0.00687786
-3.86565e-05
-0.00685714
-3.94102e-05
-0.00683608
-4.01201e-05
-0.00681473
-4.05678e-05
-0.006793
-4.1223e-05
-0.00677102
-4.15682e-05
-0.00674875
-4.19521e-05
-0.00672595
-4.27148e-05
-0.00670339
-4.4805e-05
-0.00667946
-4.27351e-05
-0.00665542
-4.58636e-05
-0.00663112
-4.57942e-05
-0.00660673
-4.59858e-05
-0.00658196
-4.69513e-05
-0.00655674
-4.71823e-05
-0.00653124
-4.84122e-05
-0.00650599
-5.04376e-05
-0.00647902
-4.77325e-05
-0.00645323
-5.19556e-05
-0.00642579
-4.85838e-05
-0.00639851
-5.05722e-05
-0.00637101
-5.21785e-05
-0.00634358
-5.45321e-05
-0.00631461
-5.07508e-05
-0.00628606
-5.35591e-05
-0.00625728
-5.41767e-05
-0.00622787
-5.45505e-05
-0.00619813
-5.52587e-05
-0.00616807
-5.57943e-05
-0.00613728
-5.7652e-05
-0.00610692
-6.14509e-05
-0.00607486
-5.76228e-05
-0.00604398
-6.13364e-05
-0.00601144
-5.73136e-05
-0.00597912
-5.98247e-05
-0.00594649
-6.05163e-05
-0.00591368
-6.16033e-05
-0.00588019
-6.22187e-05
-0.0058465
-6.30273e-05
-0.00581252
-6.39336e-05
-0.00577791
-6.43642e-05
-0.00574327
-6.51618e-05
-0.00570815
-6.51921e-05
-0.00567237
-6.68059e-05
-0.00563728
-6.92119e-05
-0.0056006
-6.43644e-05
-0.00556418
-6.80332e-05
-0.00552735
-6.92806e-05
-0.00549083
-7.20919e-05
-0.00545247
-6.74422e-05
-0.0054142
-7.1147e-05
-0.00537562
-7.25696e-05
-0.00533793
-7.48924e-05
-0.00529799
-7.05816e-05
-0.00525973
-7.58906e-05
-0.00521949
-7.15951e-05
-0.0051805
-7.75027e-05
-0.00513969
-7.24115e-05
-0.00509917
-7.53089e-05
-0.00505825
-7.60738e-05
-0.00501727
-7.70443e-05
-0.0049758
-7.78018e-05
-0.00493413
-7.84889e-05
-0.0048922
-7.87604e-05
-0.00484991
-7.92677e-05
-0.00480762
-8.00166e-05
-0.00476484
-8.08361e-05
-0.00472165
-8.0779e-05
-0.00467826
-8.10042e-05
-0.00463428
-8.2185e-05
-0.00459082
-8.54915e-05
-0.0045456
-8.08738e-05
-0.00450209
-8.59271e-05
-0.0044569
-8.1279e-05
-0.00441199
-8.42138e-05