/*--------------------------------*- C++ -*----------------------------------*\
  =========                 |
  \\      /  F ield         | OpenFOAM: The Open Source CFD Toolbox
   \\    /   O peration     | Website:  https://openfoam.org
    \\  /    A nd           | Version:  9
     \\/     M anipulation  |
\*---------------------------------------------------------------------------*/
FoamFile
{
    format      ascii;
    class       volScalarField::Internal;
    location    "1282";
    object      tmp<kEpsilon:G>;
}
// * * * * * * * * * * * * * * * * * * * * * * * * * * * * * * * * * * * * * //

dimensions      [0 2 -3 0 0 0 0];

value           nonuniform List<scalar> 
204073
(
0.049176
0.88976
2.0218
2.05658
2.09946
1.74425
1.02778
0.010467
1.343
2.99084
4.96313
7.25678
9.86278
12.7826
16.0069
19.5275
23.3343
27.4097
31.7459
36.3299
41.1495
46.1882
51.4202
56.8817
62.5087
68.3121
74.2863
80.4126
86.692
93.1126
99.6692
106.352
113.155
120.071
127.096
134.214
141.424
148.72
156.098
163.55
171.07
178.649
186.291
193.981
201.715
209.483
217.298
225.132
232.973
240.895
248.769
256.656
264.545
272.488
280.348
288.275
296.133
303.985
311.82
319.596
327.425
335.137
342.853
350.511
358.14
365.694
373.208
380.705
388.093
395.44
402.741
409.959
417.128
424.21
431.241
438.179
445.062
451.855
458.583
465.218
471.797
478.269
484.681
490.986
497.226
503.356
509.425
515.392
521.298
527.098
532.828
538.449
544.006
549.446
554.821
560.092
565.299
570.4
575.458
580.368
585.255
589.985
594.682
599.272
603.81
608.24
612.618
616.885
621.092
625.188
629.234
633.179
637.078
640.882
644.643
648.275
651.89
655.383
658.85
662.197
665.531
668.766
671.968
675.067
678.133
681.104
684.053
686.885
689.713
692.448
695.157
697.772
700.365
702.865
705.35
707.752
710.144
712.447
714.749
716.954
719.09
721.183
723.258
725.253
727.251
729.147
731.067
732.87
734.688
736.412
738.146
739.81
741.442
743.006
744.58
746.077
747.543
748.95
750.359
751.689
753.022
754.276
755.55
756.742
757.928
759.038
760.169
761.214
762.269
763.246
764.228
765.129
766.035
766.865
767.711
768.492
769.259
769.982
770.682
771.313
771.954
772.52
773.099
773.605
774.124
774.563
775.011
775.378
775.756
776.077
776.384
776.627
776.879
777.055
777.241
777.345
777.461
777.502
777.555
777.531
777.518
777.423
777.361
777.19
777.043
776.815
776.602
776.308
776.029
775.667
775.313
774.895
774.469
773.973
773.489
772.925
772.375
771.737
771.132
770.415
769.739
768.957
768.219
767.378
766.562
765.66
764.771
763.797
762.838
761.799
760.776
759.662
758.585
757.409
756.253
755.001
753.784
752.467
751.185
749.811
748.46
747.027
745.609
744.104
742.608
741.047
739.505
737.892
736.302
734.692
732.802
731.043
729.318
727.473
725.722
723.791
721.987
720.01
718.124
716.09
714.156
712.091
710.1
707.98
705.94
703.754
701.667
699.472
697.351
695.262
692.698
690.331
688.069
685.685
683.385
680.907
678.542
676.051
673.633
671.095
668.634
666.066
663.55
660.945
658.399
655.716
653.139
650.477
647.89
645.303
642.292
639.469
636.734
633.906
631.15
628.248
625.45
622.522
619.675
616.718
613.809
610.83
607.896
604.879
601.927
598.846
595.855
592.784
589.792
586.782
583.414
580.202
577.097
573.874
570.737
567.474
564.248
560.978
557.755
554.382
551.153
547.789
544.502
541.136
537.76
534.353
530.98
527.584
524.156
520.848
517.104
513.577
510.036
506.526
502.943
499.398
495.768
492.173
488.572
484.907
481.296
477.592
473.944
470.217
466.533
462.762
459.049
455.316
451.518
447.877
443.816
439.956
436.153
432.257
428.431
424.529
420.573
416.72
412.709
408.794
404.865
400.93
396.879
392.93
388.949
384.905
380.924
376.91
372.924
369.021
364.704
360.707
356.542
352.511
348.437
344.335
340.28
336.168
332.11
327.991
323.928
319.813
315.745
311.678
307.519
303.484
299.408
295.396
291.259
287.306
283.096
279.078
274.961
271.014
266.91
262.98
258.889
254.931
250.955
246.988
243.069
239.128
235.234
231.345
227.49
223.62
219.8
215.986
212.219
208.543
204.63
200.988
197.228
193.597
189.957
186.336
182.774
179.199
175.695
172.188
168.742
165.335
161.881
158.548
155.219
151.914
148.661
145.435
142.254
139.154
135.923
132.891
129.801
126.82
123.861
120.923
118.041
115.174
112.363
109.571
106.826
104.113
101.471
98.8013
96.2333
93.6859
91.1408
88.6793
86.2448
83.8516
81.4552
79.1341
76.8183
74.5681
72.3512
70.1599
68.0117
65.9028
63.8131
61.7896
59.7732
57.808
55.8806
53.9642
52.1082
50.257
48.4652
46.6932
44.9669
43.2723
41.5769
39.9389
38.3296
36.7466
35.193
33.6679
32.1812
30.7147
29.2774
27.8672
26.4813
25.1222
23.792
22.482
21.1998
19.9473
18.7094
17.5076
16.3273
15.1662
14.0173
12.8897
11.7914
10.7199
9.66445
8.62582
7.60913
6.60121
5.62697
4.67392
3.72489
2.79824
1.89417
0.997522
0.146276
0.732654
1.59232
2.44812
3.30542
4.16325
5.01306
5.87767
6.73675
7.58108
8.44833
9.31177
10.1771
11.0474
11.9199
12.7962
13.6715
14.5543
15.4369
16.336
17.2591
18.1316
19.0388
19.9771
20.8647
21.8374
22.7262
23.6626
24.6034
25.5521
26.4978
27.444
28.3921
29.3415
30.2898
31.2262
32.2282
33.1249
34.1182
35.0157
35.9366
36.8337
37.7912
38.646
39.5106
40.3725
41.2499
42.0323
42.8171
43.5808
44.3215
45.0229
45.742
46.3801
46.9973
47.6242
48.1643
48.6891
49.2129
49.6817
50.1549
50.5633
50.9516
51.3188
51.6618
52.0193
52.3163
52.5862
52.8573
53.0928
53.3224
53.5438
53.7549
53.9459
54.1339
54.3032
54.4701
54.6391
54.8023
54.9596
55.0995
55.2452
55.3925
55.5493
55.7098
55.8984
56.0316
56.1849
56.3425
56.5122
56.6779
56.8629
57.0487
57.2518
57.4589
57.6794
57.8929
58.1182
58.3577
58.6093
58.8717
59.1385
59.4172
59.7093
60.0065
60.3556
60.6507
60.9752
61.3031
61.6333
61.9829
62.3369
62.6927
63.0639
63.4381
63.8249
64.2164
64.6216
65.0258
65.4335
65.8443
66.2618
66.674
67.0918
67.5139
67.9885
68.3853
68.8006
69.2207
69.6365
70.0551
70.4707
70.8836
71.2991
71.7061
72.1163
72.5046
72.9063
73.2837
73.6746
74.0471
74.4185
74.777
75.1365
75.4756
75.8684
76.1639
76.476
76.7803
77.079
77.3806
77.6512
77.9276
78.177
78.4233
78.6683
78.8875
79.1057
79.3129
79.4982
79.6813
79.8485
79.9943
80.1426
80.2692
80.4429
80.5178
80.5951
80.6677
80.7286
80.7778
80.8102
80.8302
80.8336
80.8219
80.7873
80.7543
80.6947
80.6365
80.5665
80.4669
80.3544
80.2282
80.0744
79.9173
79.7819
79.545
79.3119
79.0659
78.8082
78.5506
78.2533
77.9536
77.6378
77.2985
76.959
76.5747
76.1924
75.7835
75.3621
74.9209
74.4616
73.9768
73.4875
72.9634
72.4782
71.8932
71.312
70.7103
70.1046
69.4641
68.8144
68.1408
67.4557
66.7388
66.0202
65.2551
64.5
63.7016
62.9082
62.074
61.2365
60.3723
59.4939
58.5982
57.7112
56.7502
55.7928
54.8165
53.8407
52.8241
51.8092
50.763
49.7249
48.6627
47.5988
46.4968
45.4017
44.2873
43.1782
42.0328
40.8943
39.7458
38.5918
37.4321
36.2806
35.0989
33.9298
32.76
31.5885
30.4336
29.2511
28.0925
26.9488
25.7819
24.65
23.5255
22.4108
21.3086
20.2228
19.1521
18.0997
17.0639
16.051
15.0583
14.093
13.1457
12.2377
11.3335
10.5935
0
9.85652
9.33933
8.75062
0
0
0
7.63972
4.34767
0
0
0
0
0
1.58384
1.01546
0.532029
0
0
0
0
0
0
0
0
0
0.0129424
0.00771213
0.00172763
0.00682839
0.0196758
0.0345185
0.0588116
0.0926663
0.138085
0.205384
0.292963
0.403549
0.543299
0.712285
0.9129
1.14563
1.41045
1.70954
2.04262
2.40912
2.80805
3.24125
3.71549
4.20884
4.73414
5.29893
5.88914
6.51558
7.1659
7.84725
8.54928
9.28216
10.0329
10.8123
11.6044
12.4281
13.2668
14.132
15.0058
15.9044
16.8105
17.7437
18.6765
19.6317
20.5883
21.571
22.5435
23.5385
24.5419
25.537
26.5368
27.574
28.6003
29.6159
30.6435
31.6691
32.6876
33.7304
34.7532
35.8116
36.8148
37.8521
38.8672
39.8988
40.9041
41.936
42.9448
43.9478
44.9378
45.9473
46.9204
47.9175
48.8797
49.864
50.8108
51.7834
52.7174
53.6715
54.5842
55.5159
56.4091
57.3294
58.2091
59.1154
59.9795
60.8698
61.7147
62.582
63.4028
64.2511
65.0582
65.8907
66.6748
67.4931
68.2693
69.0692
69.8231
70.6033
71.3288
72.0961
72.8091
73.5684
74.2699
75.0004
75.6762
76.3838
77.0414
77.7348
78.3851
79.0718
79.7091
80.3769
80.9915
81.6383
82.242
82.887
83.4629
84.0893
84.6746
85.3006
85.8546
86.4476
86.9946
87.5832
88.1176
88.6937
89.2205
89.8014
90.3129
90.8628
91.3669
91.921
92.4178
92.9542
93.4404
93.9693
94.4397
94.9566
95.4232
95.9217
96.3747
96.8789
97.3289
97.8275
98.2574
98.7438
99.17
99.6686
100.089
100.564
100.964
101.416
101.843
102.305
102.695
103.139
103.553
103.991
104.379
104.82
105.207
105.646
106.011
106.431
106.818
107.236
107.602
108.016
108.372
108.782
109.136
109.541
109.895
110.3
110.638
111.025
111.365
111.741
112.081
112.464
112.789
113.166
113.488
113.857
114.167
114.534
114.848
115.208
115.508
115.854
116.156
116.504
116.794
117.136
117.42
117.755
118.033
118.361
118.632
118.954
119.22
119.538
119.785
120.094
120.346
120.646
120.887
121.181
121.415
121.703
121.934
122.204
122.422
122.694
122.904
123.165
123.368
123.626
123.812
124.059
124.241
124.479
124.649
124.871
125.039
125.256
125.413
125.619
125.765
125.96
126.093
126.287
126.403
126.569
126.682
126.853
126.95
127.103
127.194
127.327
127.406
127.528
127.589
127.699
127.763
127.854
127.864
127.91
127.874
127.955
128.258
128.279
128.331
128.345
128.495
128.41
128.429
128.42
128.425
128.412
128.398
128.346
128.317
128.272
128.311
128.114
127.996
127.803
127.548
127.369
127.787
127.633
127.526
127.369
127.342
127.098
126.952
126.761
126.597
126.398
126.216
125.998
125.784
125.544
125.392
125.019
124.716
124.325
123.886
123.54
123.746
123.379
123.06
122.711
122.475
122.02
121.683
121.298
120.915
120.496
120.087
119.663
119.249
118.793
118.416
117.826
117.308
116.716
116.065
115.502
115.45
114.866
114.341
113.776
113.31
112.615
112.041
111.449
110.822
110.191
109.597
108.936
108.288
107.587
106.964
106.182
105.447
104.617
103.764
103.02
102.694
101.877
101.131
100.349
99.648
98.7716
97.9793
97.1928
96.3671
95.5181
94.6854
93.8282
92.975
92.1018
91.2978
90.3259
89.4144
88.4028
87.3784
86.4691
85.9098
84.9557
84.0295
83.085
82.2202
81.159
80.2317
79.2726
78.2886
77.3668
76.3907
75.3561
74.393
73.4484
72.488
71.4164
70.4031
69.3441
68.2786
67.2108
66.4809
65.4609
64.4536
63.4866
62.5373
61.4663
60.4683
59.4706
58.4623
57.4677
56.4832
55.4752
54.5065
53.486
52.5215
51.5261
50.527
49.4647
48.4329
47.5063
46.7783
45.7615
44.8251
43.8837
42.9654
41.997
41.0643
40.1908
39.2942
38.3898
37.4962
36.6146
35.7354
34.8707
34.0397
33.1505
32.3077
31.4611
30.6114
29.7613
29.122
28.3277
27.5317
26.7922
26.059
25.2852
24.5552
23.8406
23.1354
22.4426
21.7697
21.0696
20.4045
19.782
19.148
18.4951
17.876
17.2652
16.6584
16.0492
15.5788
15.021
14.474
13.9608
13.4399
12.9163
12.4275
11.9493
11.4786
11.0188
10.5765
10.146
9.70628
9.2927
8.91152
8.49337
8.10812
7.74293
7.36613
7.01162
6.72675
6.38879
6.07133
5.77141
5.47385
5.17905
4.90665
4.63578
4.37497
4.12597
3.8853
3.66001
3.43537
3.2231
3.01885
2.81634
2.62739
2.44223
2.26573
2.09733
1.95896
1.80734
1.66163
1.5254
1.39748
1.27054
1.15433
1.04708
0.943747
0.846284
0.7559
0.671541
0.590855
0.519082
0.451258
0.38569
0.329729
0.276386
0.226341
0.183926
0.149568
0.117794
0.0892823
0.0638716
0.0436915
0.0279689
0.0167348
0.00977798
0.00609558
0.00644526
0.0107055
0.0184547
0.0298819
0.0434218
0.0622421
0.0859347
0.110813
0.13971
0.172615
0.207063
0.247212
0.288602
0.338726
0.396082
0.453267
0.515359
0.580574
0.650035
0.723396
0.801728
0.885683
0.975116
1.07108
1.15978
1.26287
1.38271
1.48606
1.60642
1.73026
1.83936
1.98396
2.12412
2.26582
2.41287
2.57073
2.73206
2.89399
3.06417
3.24629
3.41292
3.59906
3.78551
3.9737
4.18407
4.38806
4.57542
4.78535
5.01032
5.23039
5.39795
5.61357
5.85453
6.07655
6.30086
6.53524
6.74035
6.96296
7.20774
7.41012
7.62809
7.86786
8.0722
8.30058
8.51706
8.72327
8.94437
9.15995
9.37576
9.59495
9.74715
9.96107
10.1779
10.3811
10.5999
10.8116
10.9858
11.179
11.3686
11.5533
11.7509
11.9327
12.1178
12.2862
12.4687
12.6679
12.8365
13.014
13.1745
13.3449
13.4755
13.6497
13.8347
14.012
14.1842
14.3593
14.5183
14.6853
14.8545
15.0065
15.1708
15.3396
15.5044
15.6732
15.826
15.9957
16.158
16.3215
16.4773
16.6471
16.7645
16.9381
17.1076
17.2769
17.4511
17.6207
17.7744
17.9451
18.1071
18.2682
18.4299
18.5903
18.7469
18.9054
19.0699
19.2376
19.3784
19.5335
19.693
19.8499
19.937
20.0972
20.2674
20.4264
20.5796
20.7439
20.8759
21.0192
21.1597
21.2975
21.4335
21.5679
21.7023
21.8309
21.9614
22.0958
22.2065
22.3266
22.4465
22.5665
22.6073
22.7281
22.858
22.9782
23.0892
23.2079
23.2883
23.3841
23.4742
23.5619
23.6481
23.7252
23.8
23.8764
23.9473
24.0235
24.0726
24.1329
24.1941
24.2493
24.2158
24.2776
24.3416
24.393
24.4377
24.4844
24.4955
24.5165
24.5318
24.5516
24.577
24.5857
24.5947
24.6024
24.5902
24.6056
24.5748
24.5618
24.5343
24.5116
24.4091
24.3899
24.3798
24.3563
24.3131
24.2776
24.2042
24.1401
24.0704
23.9918
23.9115
23.8276
23.7347
23.637
23.5342
23.435
23.3038
23.1803
23.056
22.9296
22.721
22.5953
22.4671
22.3212
22.1649
22.0102
21.8145
21.6329
21.4414
21.242
21.0415
20.8307
20.6158
20.387
20.1559
19.9281
19.6605
19.4077
19.1451
18.8824
18.5674
18.3124
18.0445
17.7564
17.4593
17.1645
16.84
16.5214
16.1855
15.844
15.5052
15.163
14.8082
14.445
14.0832
13.7227
13.3342
12.9558
12.5723
12.1898
11.7813
11.4072
11.0168
10.619
10.2108
9.80753
9.398
8.98697
8.58231
8.18383
7.77437
7.36705
6.96452
6.5659
6.17158
5.78036
5.38889
5.01247
4.64295
4.28256
3.92891
3.59341
3.25373
2.92617
2.61582
2.0455
1.77293
1.80395
1.72888
1.59726
1.17179
0.593055
0.639343
0.605191
0.681078
0.467761
0.314769
0.234231
0.14108
0.0924598
0.0794025
0.0465421
0.0269767
0.014398
0.00745497
0.00355586
0.00169409
0.00161309
0.00379488
0.00554603
0.00311748
0.0241751
0.0105315
0.00586063
0.0217619
0.0426722
0.0682493
0.0974309
0.128205
0.160758
0.200846
0.246326
0.298237
0.359217
0.428656
0.507239
0.594916
0.691597
0.798227
0.914714
1.04087
1.17663
1.3221
1.48106
1.64639
1.82036
2.007
2.20231
2.40851
2.6234
2.84739
3.07899
3.31968
3.56747
3.82356
4.08515
4.3559
4.6335
4.91845
5.20832
5.50455
5.80561
6.11418
6.42475
6.74017
7.05903
7.38428
7.71031
8.03705
8.37232
8.70971
9.04048
9.38229
9.72763
10.0699
10.4099
10.7584
11.0969
11.4446
11.7868
12.1389
12.4873
12.8279
13.1719
13.5163
13.8594
14.2006
14.5441
14.8884
15.2197
15.5566
15.8894
16.2228
16.5523
16.8815
17.2063
17.5318
17.8519
18.1721
18.4854
18.7965
19.1045
19.4123
19.7166
20.0209
20.3202
20.6187
20.9106
21.2005
21.4843
21.7695
22.05
22.3294
22.603
22.878
23.1479
23.4167
23.6765
23.9383
24.1962
24.45
24.707
24.9591
25.2034
25.4478
25.6857
25.9228
26.1549
26.3892
26.6196
26.851
27.0761
27.3002
27.5149
27.7309
27.9502
28.1649
28.3712
28.5783
28.7914
28.9995
29.1966
29.3942
29.5917
29.7901
29.9806
30.1723
30.3662
30.5589
30.7431
30.9268
31.1096
31.2959
31.4772
31.6568
31.8328
32.0097
32.1811
32.3549
32.5249
32.6918
32.8617
33.0282
33.1961
33.3613
33.5212
33.6809
33.8438
34.0119
34.1687
34.3266
34.4738
34.6307
34.7888
34.9428
35.0887
35.2442
35.3985
35.5464
35.6927
35.8418
35.9892
36.1359
36.2736
36.4211
36.5669
36.7077
36.8478
36.9889
37.1265
37.2669
37.4049
37.545
37.6821
37.8194
37.9506
38.085
38.2153
38.3488
38.4833
38.617
38.7452
38.875
39.0033
39.1308
39.2554
39.3835
39.512
39.6368
39.7571
39.8824
40.004
40.1264
40.2464
40.3678
40.4877
40.6076
40.7238
40.8403
40.9548
41.0699
41.1816
41.2955
41.409
41.5195
41.6293
41.7383
41.8453
41.9519
42.0568
42.1616
42.2676
42.3725
42.4703
42.5712
42.6691
42.7669
42.8617
42.9604
43.0552
43.148
43.2397
43.3284
43.4186
43.5013
43.5881
43.6736
43.7585
43.8414
43.9209
43.9983
44.0732
44.153
44.2274
44.2943
44.3643
44.4381
44.504
44.5682
44.6338
44.6903
44.7494
44.8059
44.8604
44.912
44.9668
45.0103
45.0405
45.0733
45.1102
45.1925
45.2587
45.2825
45.3204
45.3409
45.3518
45.3993
45.4411
45.4401
45.4603
45.4739
45.4863
45.4809
45.4878
45.5062
45.457
45.4598
45.4342
45.3966
45.3681
45.4072
45.4443
45.4068
45.3879
45.3462
45.2952
45.2895
45.2706
45.1981
45.1557
45.0987
45.0498
44.984
44.9231
44.8647
44.7439
44.6818
44.5861
44.4706
44.368
44.3381
44.2978
44.1752
44.073
43.9576
43.8285
43.7371
43.6418
43.4937
43.3647
43.2184
43.0769
42.9293
42.7895
42.6415
42.434
42.2836
42.102
41.9069
41.7134
41.5837
41.4434
41.2314
41.0462
40.8448
40.6306
40.4346
40.239
40.0068
39.7716
39.5415
39.3281
39.0819
38.8452
38.5885
38.2881
38.0572
37.7854
37.4849
37.2079
36.9929
36.7513
36.4388
36.1659
35.8722
35.5724
35.299
35.0095
34.6996
34.3872
34.0639
33.7486
33.4235
33.1033
32.7779
32.4163
32.1035
31.7623
31.3855
31.0344
30.7394
30.4199
30.0595
29.7115
29.3584
29.0054
28.6491
28.3084
27.9258
27.5558
27.2175
26.8478
26.4448
26.093
25.7476
25.3365
24.9811
24.6031
24.2181
23.8517
23.4728
23.1113
22.7284
22.359
22.0093
21.6402
21.2859
20.9132
20.5294
20.1569
19.7908
19.4287
19.0561
18.7077
18.3235
17.9394
17.6207
17.2546
16.8653
16.5147
16.2052
15.8744
15.4958
15.1652
14.8266
14.4881
14.1725
13.8323
13.5132
13.1962
12.8727
12.5529
12.239
11.9291
11.6193
11.3056
11.0194
10.7229
10.4324
10.1506
9.85442
9.58683
9.30862
9.03279
8.78266
8.52751
8.28432
8.02557
7.77036
7.53067
7.29372
7.06506
6.82077
6.59804
6.38623
6.15848
5.95574
5.74581
5.54365
5.34896
5.14263
4.95752
4.77049
4.59024
4.42404
4.25082
4.09216
3.92521
3.7615
3.60836
3.45701
3.31254
3.17249
3.0286
2.89082
2.76426
2.63708
2.51249
2.39766
2.27903
2.1641
2.05769
1.94816
1.84902
1.75614
1.66374
1.57844
1.4888
1.39941
1.31862
1.24044
1.16499
1.09549
1.02632
0.958826
0.894071
0.836658
0.778429
0.722174
0.669725
0.6166
0.568779
0.523198
0.480318
0.440443
0.403923
0.369194
0.33293
0.300134
0.270639
0.242425
0.216497
0.192411
0.16994
0.14909
0.129899
0.112992
0.0977993
0.08394
0.0710194
0.0597501
0.0504466
0.043076
0.0370965
0.0318615
0.0280602
0.025463
0.0242883
0.0244786
0.025938
0.0284497
0.0322457
0.0368719
0.0429258
0.0496932
0.0575838
0.0664467
0.0769126
0.0886158
0.101849
0.117458
0.135868
0.152155
0.17152
0.193707
0.213547
0.235317
0.261832
0.289321
0.316736
0.346433
0.378472
0.412093
0.448139
0.482491
0.519066
0.562628
0.600129
0.644686
0.690111
0.73621
0.794393
0.846089
0.897817
0.951249
1.00426
1.06092
1.12442
1.18924
1.2568
1.31617
1.38458
1.45309
1.51931
1.60185
1.67361
1.73741
1.81356
1.89744
1.97789
2.04795
2.12606
2.21637
2.29668
2.37893
2.45984
2.53289
2.6196
2.71821
2.79056
2.87234
2.96973
3.04652
3.13632
3.22555
3.29859
3.39127
3.47997
3.56933
3.66199
3.7403
3.82855
3.91972
4.00614
4.10617
4.1942
4.2744
4.36753
4.45672
4.54297
4.6402
4.72802
4.8186
4.89929
4.99343
5.08778
5.17873
5.27055
5.35128
5.43764
5.53077
5.61388
5.70499
5.79732
5.8884
5.97359
6.06622
6.1605
6.25173
6.33181
6.42046
6.5143
6.60495
6.69714
6.78083
6.86088
6.95851
7.04679
7.12826
7.21857
7.30972
7.39197
7.47244
7.55767
7.65043
7.72712
7.81573
7.91029
7.99252
8.07541
8.1586
8.24065
8.31885
8.39823
8.48537
8.55585
8.63287
8.70885
8.78867
8.86377
8.9331
8.99792
9.07247
9.14344
9.21473
9.28264
9.3551
9.42685
9.49101
9.5551
9.61781
9.6814
9.74367
9.80328
9.86707
9.91405
9.97583
10.0303
10.0848
10.1389
10.1855
10.226
10.2775
10.3288
10.3785
10.4207
10.4691
10.5167
10.5566
10.5973
10.6369
10.6726
10.707
10.7429
10.78
10.7993
10.8345
10.8635
10.8938
10.9189
10.9333
10.9467
10.9685
10.9898
11.0115
11.0236
11.0445
11.0613
11.0655
11.0779
11.0844
11.088
11.0908
11.0926
11.097
11.0843
11.0773
11.0727
11.0592
11.0596
11.0338
10.9989
10.9842
10.9713
10.9551
10.9365
10.915
10.8859
10.8546
10.8225
10.7952
10.7541
10.7105
10.6693
10.6276
10.571
10.529
10.4733
10.4256
10.367
10.2912
10.2161
10.1513
10.086
10.0269
9.94982
9.87468
9.79684
9.71035
9.62398
9.54095
9.44354
9.34999
9.24637
9.14768
9.03537
8.92897
8.81911
8.70634
8.59312
8.46539
8.3309
8.20456
8.07575
7.95227
7.81643
7.6831
7.53258
7.3773
7.23256
7.0905
6.93295
6.76892
6.60857
6.45296
6.28083
6.11506
5.94562
5.77405
5.60219
5.41515
5.22873
5.05253
4.87456
4.6918
4.51763
4.3361
4.14223
3.96157
3.77624
3.58861
3.40664
3.22349
3.04205
2.85969
2.68011
2.51091
2.33796
2.1695
2.00434
1.83367
1.66924
1.51375
1.37061
1.21493
1.00227
1.13923
1.16086
1.12628
0.777424
0.595427
0.392559
0.526484
0.233509
0.41541
0.260925
0.160901
0.109096
0.0886463
0.111797
0.088216
0.0564952
0.0356667
0.023674
0.0152706
0.00856776
0.00303421
0.000287473
0.00250023
0.00772136
0.00454306
0.0312014
0.0294547
0.0173777
0.0350428
0.0651378
0.103373
0.142015
0.17908
0.214886
0.25393
0.294715
0.338092
0.385655
0.436841
0.491916
0.550644
0.612977
0.679612
0.750335
0.825154
0.904117
0.987048
1.07675
1.16874
1.26369
1.36594
1.47209
1.58351
1.69882
1.81859
1.94187
2.06961
2.2006
2.33573
2.47333
2.61552
2.76078
2.90973
3.06076
3.21501
3.37124
3.53126
3.69182
3.85494
4.01927
4.187
4.35462
4.52233
4.69461
4.86785
5.03698
5.2116
5.38803
5.56228
5.73567
5.9135
6.08552
6.2628
6.43563
6.61466
6.79077
6.96357
7.13743
7.31206
7.48514
7.65719
7.83031
8.00451
8.17113
8.34142
8.50852
8.67657
8.84161
9.00738
9.16987
9.33341
9.49332
9.65452
9.81111
9.96787
10.1215
10.2761
10.4275
10.5802
10.7291
10.8788
11.0238
11.1693
11.3105
11.4534
11.5926
11.7329
11.869
12.0066
12.1401
12.2744
12.4025
12.5337
12.6613
12.7885
12.9157
13.0415
13.1617
13.2838
13.4017
13.5209
13.6357
13.7533
13.867
13.9825
14.0933
14.2053
14.3105
14.4184
14.526
14.6337
14.7359
14.8393
14.9429
15.0468
15.1437
15.2428
15.3397
15.4393
15.5328
15.6281
15.7226
15.8186
15.9087
16.0009
16.0899
16.1825
16.2711
16.361
16.4468
16.5351
16.6187
16.7054
16.7884
16.8728
16.9559
17.0393
17.1205
17.2035
17.2816
17.3616
17.4406
17.5243
17.6011
17.6803
17.7528
17.8317
17.9079
17.9846
18.0562
18.1346
18.2095
18.2842
18.3551
18.4297
18.5007
18.574
18.6416
18.7156
18.7857
18.8567
18.9244
18.9953
19.0621
19.1326
19.1997
19.2703
19.3362
19.4047
19.4683
19.5357
19.5989
19.6662
19.7312
19.7988
19.8605
19.9256
19.987
20.0511
20.111
20.1755
20.2372
20.3002
20.3585
20.4212
20.4792
20.5407
20.5982
20.6594
20.7173
20.778
20.8336
20.8922
20.9468
21.0044
21.0575
21.1156
21.1702
21.2262
21.2786
21.3334
21.3842
21.4379
21.4876
21.5405
21.5919
21.645
21.6912
21.7422
21.7883
21.8375
21.8822
21.9325
21.9776
22.0249
22.0679
22.1129
22.155
22.1967
22.2373
22.2807
22.321
22.3633
22.4004
22.4396
22.4743
22.515
22.5494
22.5839
22.6169
22.6546
22.6845
22.7173
22.7471
22.7759
22.8028
22.8321
22.8572
22.8836
22.9076
22.9294
22.9422
22.9616
22.9821
23.0124
23.0478
23.0594
23.0848
23.0883
23.1071
23.1117
23.1109
23.1349
23.1385
23.1426
23.147
23.1422
23.1496
23.1304
23.1395
23.1215
23.1083
23.0973
23.0846
23.0826
23.1103
23.0906
23.0849
23.0557
23.043
23.0193
22.9901
22.9783
22.9472
22.9142
22.8862
22.8508
22.8223
22.765
22.7373
22.6843
22.6343
22.5812
22.527
22.4925
22.485
22.4226
22.372
22.3022
22.2459
22.1761
22.1095
22.0591
21.9836
21.9052
21.8296
21.7515
21.6784
21.576
21.5032
21.4051
21.3118
21.2145
21.1099
21.0284
20.9718
20.8617
20.7641
20.6485
20.5475
20.424
20.3105
20.2159
20.082
19.9589
19.8452
19.7177
19.5953
19.4406
19.3179
19.1786
19.0397
18.8847
18.7342
18.6152
18.5106
18.3502
18.2056
18.0415
17.8937
17.7307
17.5737
17.4378
17.265
17.0966
16.933
16.767
16.599
16.4132
16.2562
16.0782
15.9067
15.7112
15.5225
15.3701
15.2273
15.0438
14.8595
14.6673
14.4927
14.2914
14.117
13.9433
13.7427
13.5682
13.3806
13.1785
12.9939
12.8056
12.6222
12.4276
12.2391
12.0384
11.8437
11.6597
11.5019
11.3093
11.1143
10.9272
10.7429
10.5485
10.3655
10.191
9.99409
9.80891
9.62643
9.44407
9.26479
9.06394
8.89348
8.72312
8.54431
8.34357
8.15773
8.01388
7.87088
7.68415
7.51204
7.3347
7.16851
6.99929
6.83738
6.6937
6.527
6.36712
6.20921
6.05743
5.89919
5.74241
5.60288
5.45443
5.31151
5.16059
5.01318
4.88016
4.76747
4.63167
4.48812
4.35807
4.23215
4.10406
3.98496
3.86971
3.74524
3.62885
3.5173
3.40095
3.28731
3.18208
3.08056
2.97692
2.8768
2.7708
2.66817
2.57899
2.50259
2.41159
2.3165
2.23011
2.14455
2.06101
1.986
1.91214
1.83247
1.75833
1.68768
1.62158
1.5474
1.47967
1.42377
1.35886
1.30018
1.2389
1.17526
1.12709
1.08326
1.02925
0.975993
0.927084
0.880964
0.835711
0.79592
0.754956
0.712139
0.673373
0.635883
0.602907
0.565854
0.532541
0.503234
0.473515
0.44549
0.414143
0.384788
0.362455
0.342814
0.319711
0.295297
0.273291
0.254345
0.23542
0.219053
0.203076
0.186428
0.171712
0.158116
0.145952
0.132868
0.121557
0.112121
0.102892
0.0948092
0.085968
0.0775923
0.0722392
0.0674324
0.0626372
0.0578164
0.0536151
0.051118
0.0489962
0.0473382
0.0460865
0.0455259
0.0452967
0.0461061
0.0470829
0.0491662
0.0509867
0.0535093
0.0570218
0.0610503
0.0662355
0.0725296
0.0772515
0.0836295
0.0906796
0.10008
0.110709
0.12106
0.132453
0.14279
0.154633
0.168715
0.182945
0.198551
0.214229
0.233561
0.249133
0.266022
0.288827
0.306556
0.33134
0.356233
0.374481
0.398808
0.424159
0.45288
0.481389
0.509924
0.540477
0.568256
0.599271
0.635754
0.665228
0.70003
0.733253
0.769057
0.808424
0.84459
0.877959
0.915359
0.961282
1.00524
1.03393
1.06769
1.11293
1.1573
1.2014
1.24587
1.2856
1.32409
1.37379
1.41334
1.45599
1.50708
1.54651
1.59567
1.64019
1.68067
1.72957
1.77555
1.82605
1.87779
1.91609
1.96172
2.01097
2.06128
2.11643
2.16728
2.21323
2.2608
2.31242
2.36252
2.41707
2.46744
2.5185
2.56771
2.61878
2.67548
2.7272
2.78053
2.83176
2.88449
2.93566
2.98518
3.0384
3.09539
3.15099
3.2059
3.26131
3.3146
3.37299
3.42291
3.47787
3.5354
3.59108
3.64988
3.69868
3.75472
3.81372
3.86788
3.92177
3.9787
4.03147
4.08445
4.13463
4.19056
4.24802
4.29994
4.35427
4.40762
4.46305
4.51501
4.56754
4.61936
4.66851
4.72019
4.76858
4.81807
4.86405
4.91102
4.96267
5.00879
5.0476
5.08944
5.13288
5.17753
5.2206
5.26518
5.30733
5.34506
5.38857
5.42622
5.46366
5.50156
5.53821
5.57572
5.60786
5.64319
5.67718
5.70861
5.74292
5.77393
5.79741
5.82431
5.85292
5.88432
5.91235
5.94064
5.96657
5.98871
6.01776
6.04009
6.06363
6.08554
6.10576
6.12873
6.14468
6.1638
6.18169
6.19857
6.21875
6.23311
6.23936
6.25237
6.26406
6.27733
6.28934
6.301
6.31151
6.31809
6.32842
6.33494
6.34089
6.34357
6.34712
6.35191
6.34962
6.35383
6.34876
6.34764
6.34248
6.3416
6.33035
6.31889
6.31062
6.30553
6.29667
6.29199
6.28048
6.26371
6.25562
6.23839
6.22642
6.20811
6.18688
6.1674
6.14276
6.123
6.09939
6.07217
6.04875
6.01735
5.97964
5.94876
5.91473
5.88022
5.84827
5.81233
5.76995
5.72965
5.69229
5.64527
5.60325
5.55395
5.50612
5.45214
5.39757
5.34739
5.28779
5.2313
5.17061
5.10747
5.04473
4.98219
4.91346
4.84174
4.77304
4.70207
4.62594
4.54757
4.46959
4.38816
4.31238
4.2281
4.13899
4.04832
3.96192
3.87455
3.77794
3.68476
3.58545
3.48469
3.38748
3.29172
3.19091
3.08569
2.97733
2.87612
2.76719
2.65936
2.55919
2.44732
2.33619
2.22887
2.12162
2.00973
1.90103
1.7966
1.68942
1.58451
1.47611
1.36947
1.27192
1.17741
1.07924
0.984575
0.88408
0.752239
0.85589
0.896485
0.88341
0.60211
0.474887
0.33632
0.493719
0.220786
0.328435
0.218703
0.155329
0.111617
0.0958686
0.125953
0.10433
0.0732125
0.0481447
0.0343022
0.0239989
0.0149612
0.00679491
0.00195394
0.00368238
0.0113346
0.00620531
0.0378637
0.0437106
0.0238581
0.0477956
0.088893
0.139488
0.188439
0.233805
0.275663
0.318492
0.36102
0.403921
0.448531
0.494314
0.541401
0.589485
0.638436
0.688935
0.740761
0.794013
0.848796
0.90483
0.964933
1.02532
1.08762
1.15321
1.22071
1.29092
1.36319
1.43772
1.5142
1.59298
1.67364
1.75645
1.84072
1.92742
2.016
2.10646
2.19825
2.29159
2.38621
2.48275
2.57976
2.67792
2.77701
2.87779
2.9787
3.07886
3.18299
3.2866
3.38769
3.49191
3.59828
3.70178
3.80579
3.91177
4.01438
4.12008
4.22298
4.32982
4.43486
4.53712
4.64105
4.74458
4.8478
4.94948
5.0532
5.15639
5.25557
5.35656
5.45613
5.55544
5.6537
5.75161
5.84828
5.94471
6.0399
6.13517
6.22846
6.32106
6.41251
6.5036
6.59372
6.68359
6.77238
6.86059
6.947
7.03263
7.1168
7.20089
7.2838
7.36641
7.44772
7.52866
7.60818
7.68706
7.76336
7.84061
7.9166
7.99154
8.06759
8.14136
8.21313
8.2848
8.35539
8.42548
8.49426
8.56335
8.63152
8.69935
8.76568
8.83128
8.89417
8.95742
9.02161
9.08486
9.14649
9.20718
9.2689
9.32953
9.38786
9.44589
9.50393
9.56237
9.61866
9.67446
9.73092
9.78683
9.84101
9.89493
9.94834
10.0023
10.0557
10.1084
10.1599
10.2114
10.2616
10.3121
10.3621
10.4117
10.4618
10.5106
10.5594
10.6079
10.655
10.7017
10.7492
10.7978
10.8445
10.8907
10.935
10.9809
11.0266
11.071
11.1148
11.1606
11.2058
11.2495
11.2923
11.3355
11.3782
11.4205
11.4619
11.5049
11.547
11.5882
11.629
11.6701
11.7104
11.7513
11.7921
11.833
11.8728
11.9122
11.9508
11.9895
12.0279
12.0668
12.1061
12.1454
12.1827
12.22
12.257
12.2936
12.3298
12.3667
12.4041
12.4403
12.4759
12.5116
12.5464
12.5815
12.6161
12.651
12.6863
12.7212
12.7548
12.7881
12.8209
12.8534
12.8852
12.9186
12.9517
12.9836
13.0153
13.0462
13.0767
13.1069
13.1367
13.1665
13.1979
13.228
13.2558
13.2843
13.3119
13.3393
13.3661
13.3944
13.4217
13.4484
13.474
13.499
13.5241
13.5468
13.5711
13.595
13.6195
13.6431
13.6652
13.6866
13.7073
13.7297
13.7501
13.7687
13.7888
13.8096
13.8274
13.8447
13.8624
13.8773
13.8934
13.9089
13.9241
13.9379
13.9519
13.9627
13.9707
13.9815
13.9953
14.0154
14.0293
14.0351
14.0402
14.0519
14.0586
14.0597
14.0645
14.0648
14.0715
14.0721
14.0735
14.0715
14.0631
14.0641
14.0613
14.0516
14.04
14.0271
14.0327
14.0357
14.0336
14.0204
14.0095
14.0024
13.9894
13.9744
13.9603
13.9379
13.924
13.9021
13.8834
13.8611
13.8325
13.8118
13.7858
13.7529
13.7161
13.6803
13.6634
13.6427
13.6163
13.5781
13.5439
13.5121
13.4706
13.4282
13.3887
13.3421
13.3034
13.2548
13.2074
13.1572
13.1023
13.0544
13.0008
12.9396
12.8747
12.8156
12.7705
12.7175
12.658
12.5908
12.5317
12.4722
12.4037
12.3301
12.2604
12.1877
12.113
12.0379
11.9673
11.8856
11.8051
11.7262
11.6428
11.5557
11.4612
11.3702
11.3006
11.2222
11.1319
11.0358
10.9537
10.8648
10.7674
10.6716
10.5733
10.4769
10.3807
10.2805
10.1811
10.0757
9.97057
9.87293
9.7698
9.65864
9.54466
9.43402
9.34419
9.24331
9.12887
9.02085
8.91996
8.8147
8.7027
8.58574
8.47752
8.36044
8.2487
8.14727
8.03536
7.90773
7.79643
7.69858
7.58157
7.46083
7.33631
7.22673
7.13514
7.01389
6.89441
6.78276
6.67948
6.57792
6.46007
6.34985
6.23617
6.1221
6.01426
5.90748
5.79936
5.68514
5.58148
5.47389
5.36793
5.263
5.14529
5.03794
4.95038
4.85397
4.74532
4.63806
4.55181
4.45451
4.34978
4.25528
4.15377
4.06185
3.97091
3.88043
3.78781
3.692
3.6021
3.51979
3.43349
3.34151
3.24676
3.16928
3.10195
3.01182
2.92614
2.84952
2.77862
2.70779
2.62741
2.55672
2.48138
2.40761
2.34043
2.27475
2.20956
2.13496
2.07167
2.01734
1.9542
1.88896
1.82113
1.76763
1.72131
1.65912
1.59965
1.54834
1.50279
1.4551
1.39934
1.35285
1.30411
1.2564
1.2132
1.17101
1.12898
1.08545
1.04339
1.00743
0.972534
0.92984
0.888824
0.858613
0.829248
0.793628
0.757356
0.725918
0.701211
0.673077
0.641702
0.615947
0.588741
0.561155
0.537119
0.51433
0.490847